MODEL 1
REMARK VINA RESULT:    -2.953      0.000      0.000
REMARK INTER + INTRA:          -7.624
REMARK INTER:                  -5.715
REMARK INTRA:                  -1.909
REMARK UNBOUND:                -1.909
REMARK SMILES NCCC(O)C(=O)NC1CC(N)C(OC2OC(CO)C(O)C(O)C2N)C(O)C1OC1OC(CN)C(O)C(O)C1O
REMARK SMILES IDX 10 1 9 2 28 3 26 4 13 5 11 6 8 7 6 8 7 9 4 11 3 12 2 13 1 14
REMARK SMILES IDX 5 17 12 19 29 22 30 23 39 24 31 25 37 26 32 27 35 28 40 29
REMARK SMILES IDX 38 31 33 33 34 34 36 37 14 39 15 40 24 41 16 42 22 43 17 44
REMARK SMILES IDX 20 45 25 46 23 49 18 51 19 52 21 54 27 56
REMARK H PARENT 8 10 1 15 1 16 5 18 12 20 12 21 40 30 38 32 34 35 34 36 36 38
REMARK H PARENT 25 47 25 48 23 50 19 53 21 55 27 57
ROOT
ATOM      1  C   UNL     1      13.914  -2.599  -2.156  1.00  0.00     0.049 C 
ATOM      2  C   UNL     1      12.969  -3.438  -3.044  1.00  0.00     0.115 C 
ATOM      3  C   UNL     1      11.641  -2.691  -3.298  1.00  0.00     0.175 C 
ATOM      4  C   UNL     1      10.890  -2.329  -1.991  1.00  0.00     0.176 C 
ATOM      5  C   UNL     1      11.819  -2.238  -0.758  1.00  0.00     0.169 C 
ATOM      6  C   UNL     1      13.173  -1.644  -1.197  1.00  0.00     0.085 C 
ENDROOT
BRANCH   2   7
ATOM      7  N   UNL     1      13.597  -3.787  -4.326  1.00  0.00    -0.348 N 
ATOM      8  C   UNL     1      13.456  -5.028  -4.903  1.00  0.00     0.249 C 
ATOM      9  O   UNL     1      12.913  -5.984  -4.353  1.00  0.00    -0.272 OA
ATOM     10  H   UNL     1      13.668  -3.015  -4.998  1.00  0.00     0.163 HD
BRANCH   8  11
ATOM     11  C   UNL     1      14.024  -5.155  -6.330  1.00  0.00     0.204 C 
BRANCH  11  12
ATOM     12  C   UNL     1      13.778  -6.541  -6.938  1.00  0.00     0.057 C 
BRANCH  12  13
ATOM     13  C   UNL     1      12.349  -6.761  -7.445  1.00  0.00     0.081 C 
BRANCH  13  14
ATOM     14  N   UNL     1      11.628  -7.748  -6.651  1.00  0.00    -0.330 NA
ATOM     15  H   UNL     1      11.249  -8.461  -7.287  1.00  0.00     0.118 HD
ATOM     16  H   UNL     1      10.815  -7.312  -6.216  1.00  0.00     0.118 HD
ENDBRANCH  13  14
ENDBRANCH  12  13
ENDBRANCH  11  12
BRANCH  11  17
ATOM     17  O   UNL     1      13.461  -4.147  -7.175  1.00  0.00    -0.383 OA
ATOM     18  H   UNL     1      12.493  -4.216  -7.055  1.00  0.00     0.211 HD
ENDBRANCH  11  17
ENDBRANCH   8  11
ENDBRANCH   2   7
BRANCH   6  19
ATOM     19  N   UNL     1      14.026  -1.338  -0.038  1.00  0.00    -0.325 NA
ATOM     20  H   UNL     1      15.007  -1.437  -0.293  1.00  0.00     0.119 HD
ATOM     21  H   UNL     1      13.850  -2.049   0.676  1.00  0.00     0.119 HD
ENDBRANCH   6  19
BRANCH   3  22
ATOM     22  O   UNL     1      10.785  -3.525  -4.100  1.00  0.00    -0.342 OA
BRANCH  22  23
ATOM     23  C   UNL     1      10.692  -3.116  -5.469  1.00  0.00     0.282 C 
ATOM     24  C   UNL     1      10.076  -4.261  -6.320  1.00  0.00     0.202 C 
ATOM     25  O   UNL     1       9.858  -1.966  -5.514  1.00  0.00    -0.342 OA
ATOM     26  C   UNL     1       9.277  -3.726  -7.526  1.00  0.00     0.179 C 
ATOM     27  C   UNL     1       9.792  -1.361  -6.822  1.00  0.00     0.166 C 
ATOM     28  C   UNL     1       9.853  -2.387  -7.992  1.00  0.00     0.176 C 
BRANCH  24  29
ATOM     29  O   UNL     1       9.205  -5.110  -5.540  1.00  0.00    -0.385 OA
ATOM     30  H   UNL     1       8.352  -5.071  -6.030  1.00  0.00     0.211 HD
ENDBRANCH  24  29
BRANCH  26  31
ATOM     31  O   UNL     1       7.893  -3.584  -7.164  1.00  0.00    -0.387 OA
ATOM     32  H   UNL     1       7.763  -2.692  -6.793  1.00  0.00     0.211 HD
ENDBRANCH  26  31
BRANCH  27  33
ATOM     33  C   UNL     1      10.781  -0.176  -6.925  1.00  0.00     0.112 C 
BRANCH  33  34
ATOM     34  N   UNL     1      11.648   0.015  -5.758  1.00  0.00    -0.328 NA
ATOM     35  H   UNL     1      11.148  -0.334  -4.934  1.00  0.00     0.118 HD
ATOM     36  H   UNL     1      12.483  -0.559  -5.861  1.00  0.00     0.118 HD
ENDBRANCH  33  34
ENDBRANCH  27  33
BRANCH  28  37
ATOM     37  O   UNL     1      11.185  -2.605  -8.469  1.00  0.00    -0.388 OA
ATOM     38  H   UNL     1      11.130  -3.054  -9.331  1.00  0.00     0.211 HD
ENDBRANCH  28  37
ENDBRANCH  22  23
ENDBRANCH   3  22
BRANCH   5  39
ATOM     39  O   UNL     1      12.069  -3.551  -0.221  1.00  0.00    -0.343 OA
BRANCH  39  40
ATOM     40  C   UNL     1      11.351  -3.804   0.990  1.00  0.00     0.270 C 
ATOM     41  C   UNL     1      11.975  -5.031   1.739  1.00  0.00     0.139 C 
ATOM     42  O   UNL     1      11.306  -2.600   1.782  1.00  0.00    -0.342 OA
ATOM     43  C   UNL     1      11.635  -4.874   3.222  1.00  0.00     0.167 C 
ATOM     44  C   UNL     1      12.416  -2.509   2.692  1.00  0.00     0.178 C 
ATOM     45  C   UNL     1      12.264  -3.589   3.799  1.00  0.00     0.176 C 
BRANCH  41  46
ATOM     46  N   UNL     1      13.444  -5.190   1.561  1.00  0.00    -0.321 NA
ATOM     47  H   UNL     1      13.722  -4.602   0.773  1.00  0.00     0.119 HD
ATOM     48  H   UNL     1      13.898  -4.817   2.397  1.00  0.00     0.119 HD
ENDBRANCH  41  46
BRANCH  43  49
ATOM     49  O   UNL     1      12.049  -6.020   3.983  1.00  0.00    -0.388 OA
ATOM     50  H   UNL     1      11.821  -5.803   4.907  1.00  0.00     0.211 HD
ENDBRANCH  43  49
BRANCH  44  51
ATOM     51  C   UNL     1      12.479  -1.078   3.225  1.00  0.00     0.191 C 
BRANCH  51  52
ATOM     52  O   UNL     1      13.429  -0.311   2.479  1.00  0.00    -0.394 OA
ATOM     53  H   UNL     1      13.403  -0.686   1.575  1.00  0.00     0.210 HD
ENDBRANCH  51  52
ENDBRANCH  44  51
BRANCH  45  54
ATOM     54  O   UNL     1      11.424  -3.215   4.907  1.00  0.00    -0.388 OA
ATOM     55  H   UNL     1      11.760  -3.664   5.711  1.00  0.00     0.211 HD
ENDBRANCH  45  54
ENDBRANCH  39  40
ENDBRANCH   5  39
BRANCH   4  56
ATOM     56  O   UNL     1       9.804  -3.235  -1.738  1.00  0.00    -0.388 OA
ATOM     57  H   UNL     1       8.996  -2.777  -2.053  1.00  0.00     0.211 HD
ENDBRANCH   4  56
TORSDOF 22
ENDMDL
MODEL 2
REMARK VINA RESULT:    -2.534      2.206      3.412
REMARK INTER + INTRA:          -6.813
REMARK INTER:                  -6.849
REMARK INTRA:                   0.037
REMARK UNBOUND:                -1.909
REMARK SMILES NCCC(O)C(=O)NC1CC(N)C(OC2OC(CO)C(O)C(O)C2N)C(O)C1OC1OC(CN)C(O)C(O)C1O
REMARK SMILES IDX 10 1 9 2 28 3 26 4 13 5 11 6 8 7 6 8 7 9 4 11 3 12 2 13 1 14
REMARK SMILES IDX 5 17 12 19 29 22 30 23 39 24 31 25 37 26 32 27 35 28 40 29
REMARK SMILES IDX 38 31 33 33 34 34 36 37 14 39 15 40 24 41 16 42 22 43 17 44
REMARK SMILES IDX 20 45 25 46 23 49 18 51 19 52 21 54 27 56
REMARK H PARENT 8 10 1 15 1 16 5 18 12 20 12 21 40 30 38 32 34 35 34 36 36 38
REMARK H PARENT 25 47 25 48 23 50 19 53 21 55 27 57
ROOT
ATOM      1  C   UNL     1      12.459  -4.907  -2.257  1.00  0.00     0.049 C 
ATOM      2  C   UNL     1      11.854  -3.718  -3.037  1.00  0.00     0.115 C 
ATOM      3  C   UNL     1      12.962  -2.775  -3.555  1.00  0.00     0.175 C 
ATOM      4  C   UNL     1      13.856  -2.211  -2.421  1.00  0.00     0.176 C 
ATOM      5  C   UNL     1      13.868  -3.098  -1.155  1.00  0.00     0.169 C 
ATOM      6  C   UNL     1      13.807  -4.579  -1.582  1.00  0.00     0.085 C 
ENDROOT
BRANCH   2   7
ATOM      7  N   UNL     1      11.023  -4.174  -4.161  1.00  0.00    -0.348 N 
ATOM      8  C   UNL     1      11.343  -5.280  -4.913  1.00  0.00     0.249 C 
ATOM      9  O   UNL     1      12.398  -5.904  -4.806  1.00  0.00    -0.272 OA
ATOM     10  H   UNL     1      10.016  -4.020  -4.045  1.00  0.00     0.163 HD
BRANCH   8  11
ATOM     11  C   UNL     1      10.265  -5.719  -5.924  1.00  0.00     0.204 C 
BRANCH  11  12
ATOM     12  C   UNL     1       9.389  -4.551  -6.391  1.00  0.00     0.057 C 
BRANCH  12  13
ATOM     13  C   UNL     1       9.097  -4.546  -7.895  1.00  0.00     0.081 C 
BRANCH  13  14
ATOM     14  N   UNL     1       8.300  -3.394  -8.299  1.00  0.00    -0.330 NA
ATOM     15  H   UNL     1       7.342  -3.524  -7.949  1.00  0.00     0.118 HD
ATOM     16  H   UNL     1       8.217  -3.371  -9.315  1.00  0.00     0.118 HD
ENDBRANCH  13  14
ENDBRANCH  12  13
ENDBRANCH  11  12
BRANCH  11  17
ATOM     17  O   UNL     1      10.876  -6.349  -7.053  1.00  0.00    -0.383 OA
ATOM     18  H   UNL     1      10.135  -6.631  -7.628  1.00  0.00     0.211 HD
ENDBRANCH  11  17
ENDBRANCH   8  11
ENDBRANCH   2   7
BRANCH   6  19
ATOM     19  N   UNL     1      14.025  -5.478  -0.439  1.00  0.00    -0.325 NA
ATOM     20  H   UNL     1      14.651  -5.040   0.235  1.00  0.00     0.119 HD
ATOM     21  H   UNL     1      14.521  -6.306  -0.782  1.00  0.00     0.119 HD
ENDBRANCH   6  19
BRANCH   3  22
ATOM     22  O   UNL     1      12.347  -1.671  -4.244  1.00  0.00    -0.342 OA
BRANCH  22  23
ATOM     23  C   UNL     1      12.651  -1.616  -5.642  1.00  0.00     0.282 C 
ATOM     24  C   UNL     1      13.891  -2.501  -5.946  1.00  0.00     0.202 C 
ATOM     25  O   UNL     1      11.515  -2.102  -6.345  1.00  0.00    -0.342 OA
ATOM     26  C   UNL     1      13.848  -3.094  -7.370  1.00  0.00     0.179 C 
ATOM     27  C   UNL     1      11.630  -1.969  -7.776  1.00  0.00     0.166 C 
ATOM     28  C   UNL     1      13.080  -2.163  -8.310  1.00  0.00     0.176 C 
BRANCH  24  29
ATOM     29  O   UNL     1      14.026  -3.589  -5.005  1.00  0.00    -0.385 OA
ATOM     30  H   UNL     1      13.513  -4.317  -5.426  1.00  0.00     0.211 HD
ENDBRANCH  24  29
BRANCH  26  31
ATOM     31  O   UNL     1      13.238  -4.394  -7.333  1.00  0.00    -0.387 OA
ATOM     32  H   UNL     1      13.938  -5.058  -7.197  1.00  0.00     0.211 HD
ENDBRANCH  26  31
BRANCH  27  33
ATOM     33  C   UNL     1      10.907  -0.691  -8.265  1.00  0.00     0.112 C 
BRANCH  33  34
ATOM     34  N   UNL     1       9.474  -0.632  -7.959  1.00  0.00    -0.328 NA
ATOM     35  H   UNL     1       9.027  -0.038  -8.664  1.00  0.00     0.118 HD
ATOM     36  H   UNL     1       9.069  -1.561  -8.057  1.00  0.00     0.118 HD
ENDBRANCH  33  34
ENDBRANCH  27  33
BRANCH  28  37
ATOM     37  O   UNL     1      13.800  -0.930  -8.420  1.00  0.00    -0.388 OA
ATOM     38  H   UNL     1      13.165  -0.198  -8.323  1.00  0.00     0.211 HD
ENDBRANCH  28  37
ENDBRANCH  22  23
ENDBRANCH   3  22
BRANCH   5  39
ATOM     39  O   UNL     1      12.710  -2.828  -0.342  1.00  0.00    -0.343 OA
BRANCH  39  40
ATOM     40  C   UNL     1      13.044  -2.334   0.959  1.00  0.00     0.270 C 
ATOM     41  C   UNL     1      11.773  -1.731   1.648  1.00  0.00     0.139 C 
ATOM     42  O   UNL     1      13.679  -3.382   1.721  1.00  0.00    -0.342 OA
ATOM     43  C   UNL     1      11.999  -1.811   3.159  1.00  0.00     0.167 C 
ATOM     44  C   UNL     1      12.727  -4.153   2.476  1.00  0.00     0.178 C 
ATOM     45  C   UNL     1      12.144  -3.277   3.618  1.00  0.00     0.176 C 
BRANCH  41  46
ATOM     46  N   UNL     1      10.491  -2.392   1.283  1.00  0.00    -0.321 NA
ATOM     47  H   UNL     1      10.484  -2.506   0.268  1.00  0.00     0.119 HD
ATOM     48  H   UNL     1      10.498  -3.327   1.696  1.00  0.00     0.119 HD
ENDBRANCH  41  46
BRANCH  43  49
ATOM     49  O   UNL     1      10.945  -1.160   3.886  1.00  0.00    -0.388 OA
ATOM     50  H   UNL     1      10.462  -1.884   4.329  1.00  0.00     0.211 HD
ENDBRANCH  43  49
BRANCH  44  51
ATOM     51  C   UNL     1      13.424  -5.424   2.961  1.00  0.00     0.191 C 
BRANCH  51  52
ATOM     52  O   UNL     1      12.927  -6.565   2.255  1.00  0.00    -0.394 OA
ATOM     53  H   UNL     1      12.567  -6.207   1.417  1.00  0.00     0.210 HD
ENDBRANCH  51  52
ENDBRANCH  44  51
BRANCH  45  54
ATOM     54  O   UNL     1      12.938  -3.227   4.817  1.00  0.00    -0.388 OA
ATOM     55  H   UNL     1      12.364  -3.464   5.575  1.00  0.00     0.211 HD
ENDBRANCH  45  54
ENDBRANCH  39  40
ENDBRANCH   5  39
BRANCH   4  56
ATOM     56  O   UNL     1      13.496  -0.861  -2.087  1.00  0.00    -0.388 OA
ATOM     57  H   UNL     1      14.108  -0.590  -1.371  1.00  0.00     0.211 HD
ENDBRANCH   4  56
TORSDOF 22
ENDMDL
MODEL 3
REMARK VINA RESULT:    -2.111      2.627      8.776
REMARK INTER + INTRA:          -5.994
REMARK INTER:                  -5.520
REMARK INTRA:                  -0.474
REMARK UNBOUND:                -1.909
REMARK SMILES NCCC(O)C(=O)NC1CC(N)C(OC2OC(CO)C(O)C(O)C2N)C(O)C1OC1OC(CN)C(O)C(O)C1O
REMARK SMILES IDX 10 1 9 2 28 3 26 4 13 5 11 6 8 7 6 8 7 9 4 11 3 12 2 13 1 14
REMARK SMILES IDX 5 17 12 19 29 22 30 23 39 24 31 25 37 26 32 27 35 28 40 29
REMARK SMILES IDX 38 31 33 33 34 34 36 37 14 39 15 40 24 41 16 42 22 43 17 44
REMARK SMILES IDX 20 45 25 46 23 49 18 51 19 52 21 54 27 56
REMARK H PARENT 8 10 1 15 1 16 5 18 12 20 12 21 40 30 38 32 34 35 34 36 36 38
REMARK H PARENT 25 47 25 48 23 50 19 53 21 55 27 57
ROOT
ATOM      1  C   UNL     1      12.118  -4.545  -1.680  1.00  0.00     0.049 C 
ATOM      2  C   UNL     1      13.263  -4.256  -0.685  1.00  0.00     0.115 C 
ATOM      3  C   UNL     1      12.916  -3.057   0.224  1.00  0.00     0.175 C 
ATOM      4  C   UNL     1      12.621  -1.760  -0.572  1.00  0.00     0.176 C 
ATOM      5  C   UNL     1      12.160  -2.025  -2.024  1.00  0.00     0.169 C 
ATOM      6  C   UNL     1      11.288  -3.297  -2.045  1.00  0.00     0.085 C 
ENDROOT
BRANCH   2   7
ATOM      7  N   UNL     1      13.575  -5.432   0.140  1.00  0.00    -0.348 N 
ATOM      8  C   UNL     1      12.609  -6.123   0.833  1.00  0.00     0.249 C 
ATOM      9  O   UNL     1      11.439  -5.757   0.934  1.00  0.00    -0.272 OA
ATOM     10  H   UNL     1      14.342  -6.016  -0.211  1.00  0.00     0.163 HD
BRANCH   8  11
ATOM     11  C   UNL     1      13.085  -7.434   1.489  1.00  0.00     0.204 C 
BRANCH  11  12
ATOM     12  C   UNL     1      11.923  -8.276   2.030  1.00  0.00     0.057 C 
BRANCH  12  13
ATOM     13  C   UNL     1      11.581  -8.003   3.498  1.00  0.00     0.081 C 
BRANCH  13  14
ATOM     14  N   UNL     1      12.701  -8.284   4.388  1.00  0.00    -0.330 NA
ATOM     15  H   UNL     1      13.520  -7.760   4.054  1.00  0.00     0.118 HD
ATOM     16  H   UNL     1      12.960  -9.268   4.317  1.00  0.00     0.118 HD
ENDBRANCH  13  14
ENDBRANCH  12  13
ENDBRANCH  11  12
BRANCH  11  17
ATOM     17  O   UNL     1      13.848  -8.203   0.555  1.00  0.00    -0.383 OA
ATOM     18  H   UNL     1      14.285  -8.900   1.085  1.00  0.00     0.211 HD
ENDBRANCH  11  17
ENDBRANCH   8  11
ENDBRANCH   2   7
BRANCH   6  19
ATOM     19  N   UNL     1      10.648  -3.488  -3.356  1.00  0.00    -0.325 NA
ATOM     20  H   UNL     1      10.160  -4.381  -3.379  1.00  0.00     0.119 HD
ATOM     21  H   UNL     1      11.390  -3.557  -4.059  1.00  0.00     0.119 HD
ENDBRANCH   6  19
BRANCH   3  22
ATOM     22  O   UNL     1      14.025  -2.808   1.108  1.00  0.00    -0.342 OA
BRANCH  22  23
ATOM     23  C   UNL     1      13.661  -2.737   2.490  1.00  0.00     0.282 C 
ATOM     24  C   UNL     1      13.828  -1.280   3.005  1.00  0.00     0.202 C 
ATOM     25  O   UNL     1      12.303  -3.144   2.596  1.00  0.00    -0.342 OA
ATOM     26  C   UNL     1      12.830  -0.943   4.131  1.00  0.00     0.179 C 
ATOM     27  C   UNL     1      11.847  -3.257   3.959  1.00  0.00     0.166 C 
ATOM     28  C   UNL     1      12.473  -2.203   4.920  1.00  0.00     0.176 C 
BRANCH  24  29
ATOM     29  O   UNL     1      13.665  -0.309   1.948  1.00  0.00    -0.385 OA
ATOM     30  H   UNL     1      12.904   0.235   2.256  1.00  0.00     0.211 HD
ENDBRANCH  24  29
BRANCH  26  31
ATOM     31  O   UNL     1      11.649  -0.346   3.568  1.00  0.00    -0.387 OA
ATOM     32  H   UNL     1      11.117  -1.051   3.155  1.00  0.00     0.211 HD
ENDBRANCH  26  31
BRANCH  27  33
ATOM     33  C   UNL     1      11.924  -4.725   4.441  1.00  0.00     0.112 C 
BRANCH  33  34
ATOM     34  N   UNL     1      13.265  -5.188   4.814  1.00  0.00    -0.328 NA
ATOM     35  H   UNL     1      13.185  -5.712   5.690  1.00  0.00     0.118 HD
ATOM     36  H   UNL     1      13.604  -5.841   4.110  1.00  0.00     0.118 HD
ENDBRANCH  33  34
ENDBRANCH  27  33
BRANCH  28  37
ATOM     37  O   UNL     1      13.654  -2.683   5.573  1.00  0.00    -0.388 OA
ATOM     38  H   UNL     1      14.274  -1.938   5.664  1.00  0.00     0.211 HD
ENDBRANCH  28  37
ENDBRANCH  22  23
ENDBRANCH   3  22
BRANCH   5  39
ATOM     39  O   UNL     1      13.298  -2.258  -2.876  1.00  0.00    -0.343 OA
BRANCH  39  40
ATOM     40  C   UNL     1      13.322  -1.401  -4.021  1.00  0.00     0.270 C 
ATOM     41  C   UNL     1      13.825  -2.194  -5.275  1.00  0.00     0.139 C 
ATOM     42  O   UNL     1      12.024  -0.796  -4.196  1.00  0.00    -0.342 OA
ATOM     43  C   UNL     1      13.254  -1.494  -6.510  1.00  0.00     0.167 C 
ATOM     44  C   UNL     1      11.172  -1.583  -5.048  1.00  0.00     0.178 C 
ATOM     45  C   UNL     1      11.712  -1.533  -6.503  1.00  0.00     0.176 C 
BRANCH  41  46
ATOM     46  N   UNL     1      13.461  -3.638  -5.289  1.00  0.00    -0.321 NA
ATOM     47  H   UNL     1      14.327  -4.170  -5.391  1.00  0.00     0.119 HD
ATOM     48  H   UNL     1      13.068  -3.866  -4.373  1.00  0.00     0.119 HD
ENDBRANCH  41  46
BRANCH  43  49
ATOM     49  O   UNL     1      13.765  -2.066  -7.725  1.00  0.00    -0.388 OA
ATOM     50  H   UNL     1      13.105  -1.837  -8.407  1.00  0.00     0.211 HD
ENDBRANCH  43  49
BRANCH  44  51
ATOM     51  C   UNL     1       9.742  -1.065  -4.898  1.00  0.00     0.191 C 
BRANCH  51  52
ATOM     52  O   UNL     1       8.804  -2.129  -5.088  1.00  0.00    -0.394 OA
ATOM     53  H   UNL     1       8.407  -2.276  -4.205  1.00  0.00     0.210 HD
ENDBRANCH  51  52
ENDBRANCH  44  51
BRANCH  45  54
ATOM     54  O   UNL     1      11.296  -0.389  -7.271  1.00  0.00    -0.388 OA
ATOM     55  H   UNL     1      11.626   0.418  -6.823  1.00  0.00     0.211 HD
ENDBRANCH  45  54
ENDBRANCH  39  40
ENDBRANCH   5  39
BRANCH   4  56
ATOM     56  O   UNL     1      13.742  -0.862  -0.554  1.00  0.00    -0.388 OA
ATOM     57  H   UNL     1      13.519  -0.144  -1.183  1.00  0.00     0.211 HD
ENDBRANCH   4  56
TORSDOF 22
ENDMDL
MODEL 4
REMARK VINA RESULT:    -0.618     19.540     22.610
REMARK INTER + INTRA:          -3.106
REMARK INTER:                  -2.935
REMARK INTRA:                  -0.170
REMARK UNBOUND:                -1.909
REMARK SMILES NCCC(O)C(=O)NC1CC(N)C(OC2OC(CO)C(O)C(O)C2N)C(O)C1OC1OC(CN)C(O)C(O)C1O
REMARK SMILES IDX 10 1 9 2 28 3 26 4 13 5 11 6 8 7 6 8 7 9 4 11 3 12 2 13 1 14
REMARK SMILES IDX 5 17 12 19 29 22 30 23 39 24 31 25 37 26 32 27 35 28 40 29
REMARK SMILES IDX 38 31 33 33 34 34 36 37 14 39 15 40 24 41 16 42 22 43 17 44
REMARK SMILES IDX 20 45 25 46 23 49 18 51 19 52 21 54 27 56
REMARK H PARENT 8 10 1 15 1 16 5 18 12 20 12 21 40 30 38 32 34 35 34 36 36 38
REMARK H PARENT 25 47 25 48 23 50 19 53 21 55 27 57
ROOT
ATOM      1  C   UNL     1      -4.283  12.127  -7.202  1.00  0.00     0.049 C 
ATOM      2  C   UNL     1      -5.278  11.645  -6.123  1.00  0.00     0.115 C 
ATOM      3  C   UNL     1      -5.985  12.842  -5.450  1.00  0.00     0.175 C 
ATOM      4  C   UNL     1      -4.996  13.838  -4.793  1.00  0.00     0.176 C 
ATOM      5  C   UNL     1      -3.578  13.787  -5.408  1.00  0.00     0.169 C 
ATOM      6  C   UNL     1      -3.701  13.529  -6.924  1.00  0.00     0.085 C 
ENDROOT
BRANCH   2   7
ATOM      7  N   UNL     1      -6.279  10.725  -6.681  1.00  0.00    -0.348 N 
ATOM      8  C   UNL     1      -6.024   9.386  -6.871  1.00  0.00     0.249 C 
ATOM      9  O   UNL     1      -4.919   8.868  -6.720  1.00  0.00    -0.272 OA
ATOM     10  H   UNL     1      -7.250  10.938  -6.431  1.00  0.00     0.163 HD
BRANCH   8  11
ATOM     11  C   UNL     1      -7.244   8.540  -7.285  1.00  0.00     0.204 C 
BRANCH  11  12
ATOM     12  C   UNL     1      -8.047   8.039  -6.079  1.00  0.00     0.057 C 
BRANCH  12  13
ATOM     13  C   UNL     1      -7.444   6.813  -5.388  1.00  0.00     0.081 C 
BRANCH  13  14
ATOM     14  N   UNL     1      -8.098   6.516  -4.119  1.00  0.00    -0.330 NA
ATOM     15  H   UNL     1      -9.060   6.878  -4.158  1.00  0.00     0.118 HD
ATOM     16  H   UNL     1      -7.644   7.033  -3.368  1.00  0.00     0.118 HD
ENDBRANCH  13  14
ENDBRANCH  12  13
ENDBRANCH  11  12
BRANCH  11  17
ATOM     17  O   UNL     1      -8.093   9.293  -8.156  1.00  0.00    -0.383 OA
ATOM     18  H   UNL     1      -7.820   9.047  -9.063  1.00  0.00     0.211 HD
ENDBRANCH  11  17
ENDBRANCH   8  11
ENDBRANCH   2   7
BRANCH   6  19
ATOM     19  N   UNL     1      -2.404  13.675  -7.601  1.00  0.00    -0.325 NA
ATOM     20  H   UNL     1      -1.794  14.283  -7.058  1.00  0.00     0.119 HD
ATOM     21  H   UNL     1      -2.567  14.163  -8.486  1.00  0.00     0.119 HD
ENDBRANCH   6  19
BRANCH   3  22
ATOM     22  O   UNL     1      -6.874  12.344  -4.433  1.00  0.00    -0.342 OA
BRANCH  22  23
ATOM     23  C   UNL     1      -6.216  11.609  -3.396  1.00  0.00     0.282 C 
ATOM     24  C   UNL     1      -6.364  12.359  -2.044  1.00  0.00     0.202 C 
ATOM     25  O   UNL     1      -6.835  10.330  -3.321  1.00  0.00    -0.342 OA
ATOM     26  C   UNL     1      -6.384  11.393  -0.841  1.00  0.00     0.179 C 
ATOM     27  C   UNL     1      -6.173   9.430  -2.408  1.00  0.00     0.166 C 
ATOM     28  C   UNL     1      -5.573  10.135  -1.156  1.00  0.00     0.176 C 
BRANCH  24  29
ATOM     29  O   UNL     1      -7.563  13.165  -1.998  1.00  0.00    -0.385 OA
ATOM     30  H   UNL     1      -7.463  13.763  -2.773  1.00  0.00     0.211 HD
ENDBRANCH  24  29
BRANCH  26  31
ATOM     31  O   UNL     1      -7.743  11.051  -0.518  1.00  0.00    -0.387 OA
ATOM     32  H   UNL     1      -8.051  11.653   0.185  1.00  0.00     0.211 HD
ENDBRANCH  26  31
BRANCH  27  33
ATOM     33  C   UNL     1      -5.208   8.493  -3.171  1.00  0.00     0.112 C 
BRANCH  33  34
ATOM     34  N   UNL     1      -3.887   9.061  -3.459  1.00  0.00    -0.328 NA
ATOM     35  H   UNL     1      -4.027   9.945  -3.957  1.00  0.00     0.118 HD
ATOM     36  H   UNL     1      -3.418   9.287  -2.584  1.00  0.00     0.118 HD
ENDBRANCH  33  34
ENDBRANCH  27  33
BRANCH  28  37
ATOM     37  O   UNL     1      -4.202  10.510  -1.336  1.00  0.00    -0.388 OA
ATOM     38  H   UNL     1      -3.644   9.830  -0.919  1.00  0.00     0.211 HD
ENDBRANCH  28  37
ENDBRANCH  22  23
ENDBRANCH   3  22
BRANCH   5  39
ATOM     39  O   UNL     1      -2.823  12.701  -4.837  1.00  0.00    -0.343 OA
BRANCH  39  40
ATOM     40  C   UNL     1      -1.742  13.146  -4.012  1.00  0.00     0.270 C 
ATOM     41  C   UNL     1      -1.156  11.942  -3.198  1.00  0.00     0.139 C 
ATOM     42  O   UNL     1      -0.767  13.829  -4.826  1.00  0.00    -0.342 OA
ATOM     43  C   UNL     1       0.295  12.290  -2.862  1.00  0.00     0.167 C 
ATOM     44  C   UNL     1       0.243  12.934  -5.325  1.00  0.00     0.178 C 
ATOM     45  C   UNL     1       1.134  12.456  -4.146  1.00  0.00     0.176 C 
BRANCH  41  46
ATOM     46  N   UNL     1      -1.223  10.628  -3.892  1.00  0.00    -0.321 NA
ATOM     47  H   UNL     1      -1.384  10.813  -4.884  1.00  0.00     0.119 HD
ATOM     48  H   UNL     1      -0.305  10.187  -3.808  1.00  0.00     0.119 HD
ENDBRANCH  41  46
BRANCH  43  49
ATOM     49  O   UNL     1       0.887  11.306  -1.999  1.00  0.00    -0.388 OA
ATOM     50  H   UNL     1       0.456  10.465  -2.245  1.00  0.00     0.211 HD
ENDBRANCH  43  49
BRANCH  44  51
ATOM     51  C   UNL     1       1.012  13.654  -6.432  1.00  0.00     0.191 C 
BRANCH  51  52
ATOM     52  O   UNL     1       2.378  13.838  -6.050  1.00  0.00    -0.394 OA
ATOM     53  H   UNL     1       2.753  14.433  -6.732  1.00  0.00     0.210 HD
ENDBRANCH  51  52
ENDBRANCH  44  51
BRANCH  45  54
ATOM     54  O   UNL     1       2.208  13.346  -3.790  1.00  0.00    -0.388 OA
ATOM     55  H   UNL     1       3.010  13.070  -4.281  1.00  0.00     0.211 HD
ENDBRANCH  45  54
ENDBRANCH  39  40
ENDBRANCH   5  39
BRANCH   4  56
ATOM     56  O   UNL     1      -4.935  13.660  -3.369  1.00  0.00    -0.388 OA
ATOM     57  H   UNL     1      -5.277  12.758  -3.197  1.00  0.00     0.211 HD
ENDBRANCH   4  56
TORSDOF 22
ENDMDL
