REMARK SMILES NCCC(O)C(=O)NC1CC(N)C(OC2OC(CO)C(O)C(O)C2N)C(O)C1OC1OC(CN)C(O)C(O)C1O
REMARK SMILES IDX 10 1 9 2 28 3 26 4 13 5 11 6 8 7 6 8 7 9 4 11 3 12 2 13 1 14
REMARK SMILES IDX 5 17 12 19 29 22 30 23 39 24 31 25 37 26 32 27 35 28 40 29
REMARK SMILES IDX 38 31 33 33 34 34 36 37 14 39 15 40 24 41 16 42 22 43 17 44
REMARK SMILES IDX 20 45 25 46 23 49 18 51 19 52 21 54 27 56
REMARK H PARENT 8 10 1 15 1 16 5 18 12 20 12 21 40 30 38 32 34 35 34 36 36 38
REMARK H PARENT 25 47 25 48 23 50 19 53 21 55 27 57
ROOT
ATOM      1  C   UNL     1       0.265   2.185   0.597  1.00  0.00     0.049 C 
ATOM      2  C   UNL     1      -0.274   1.022  -0.265  1.00  0.00     0.115 C 
ATOM      3  C   UNL     1      -0.758  -0.146   0.622  1.00  0.00     0.175 C 
ATOM      4  C   UNL     1       0.352  -0.700   1.552  1.00  0.00     0.176 C 
ATOM      5  C   UNL     1       1.471   0.326   1.846  1.00  0.00     0.169 C 
ATOM      6  C   UNL     1       0.844   1.731   1.953  1.00  0.00     0.085 C 
ENDROOT
BRANCH   2   7
ATOM      7  N   UNL     1      -1.364   1.461  -1.148  1.00  0.00    -0.348 N 
ATOM      8  C   UNL     1      -1.191   2.435  -2.104  1.00  0.00     0.249 C 
ATOM      9  O   UNL     1      -0.169   3.109  -2.223  1.00  0.00    -0.272 OA
ATOM     10  H   UNL     1      -2.032   0.728  -1.408  1.00  0.00     0.163 HD
BRANCH   8  11
ATOM     11  C   UNL     1      -2.384   2.633  -3.060  1.00  0.00     0.204 C 
BRANCH  11  12
ATOM     12  C   UNL     1      -3.684   2.960  -2.316  1.00  0.00     0.057 C 
BRANCH  12  13
ATOM     13  C   UNL     1      -3.640   4.268  -1.519  1.00  0.00     0.081 C 
BRANCH  13  14
ATOM     14  N   UNL     1      -3.685   5.442  -2.382  1.00  0.00    -0.330 NA
ATOM     15  H   UNL     1      -3.143   5.241  -3.232  1.00  0.00     0.118 HD
ATOM     16  H   UNL     1      -3.205   6.220  -1.931  1.00  0.00     0.118 HD
ENDBRANCH  13  14
ENDBRANCH  12  13
ENDBRANCH  11  12
BRANCH  11  17
ATOM     17  O   UNL     1      -2.092   3.666  -4.005  1.00  0.00    -0.383 OA
ATOM     18  H   UNL     1      -1.117   3.750  -4.007  1.00  0.00     0.211 HD
ENDBRANCH  11  17
ENDBRANCH   8  11
ENDBRANCH   2   7
BRANCH   6  19
ATOM     19  N   UNL     1       1.820   2.720   2.436  1.00  0.00    -0.325 NA
ATOM     20  H   UNL     1       1.462   3.662   2.291  1.00  0.00     0.119 HD
ATOM     21  H   UNL     1       2.656   2.646   1.850  1.00  0.00     0.119 HD
ENDBRANCH   6  19
BRANCH   3  22
ATOM     22  O   UNL     1      -1.218  -1.214  -0.226  1.00  0.00    -0.342 OA
BRANCH  22  23
ATOM     23  C   UNL     1      -2.434  -1.825   0.217  1.00  0.00     0.282 C 
ATOM     24  C   UNL     1      -3.651  -1.099  -0.420  1.00  0.00     0.202 C 
ATOM     25  O   UNL     1      -2.402  -3.186  -0.193  1.00  0.00    -0.342 OA
ATOM     26  C   UNL     1      -4.850  -2.047  -0.630  1.00  0.00     0.179 C 
ATOM     27  C   UNL     1      -3.508  -3.960   0.314  1.00  0.00     0.166 C 
ATOM     28  C   UNL     1      -4.839  -3.158   0.421  1.00  0.00     0.176 C 
BRANCH  24  29
ATOM     29  O   UNL     1      -3.320  -0.498  -1.692  1.00  0.00    -0.385 OA
ATOM     30  H   UNL     1      -3.262  -1.271  -2.299  1.00  0.00     0.211 HD
ENDBRANCH  24  29
BRANCH  26  31
ATOM     31  O   UNL     1      -4.801  -2.602  -1.955  1.00  0.00    -0.387 OA
ATOM     32  H   UNL     1      -5.662  -3.018  -2.145  1.00  0.00     0.211 HD
ENDBRANCH  26  31
BRANCH  27  33
ATOM     33  C   UNL     1      -3.094  -4.734   1.588  1.00  0.00     0.112 C 
BRANCH  33  34
ATOM     34  N   UNL     1      -2.793  -3.897   2.754  1.00  0.00    -0.328 NA
ATOM     35  H   UNL     1      -3.621  -3.328   2.955  1.00  0.00     0.118 HD
ATOM     36  H   UNL     1      -2.640  -4.492   3.566  1.00  0.00     0.118 HD
ENDBRANCH  33  34
ENDBRANCH  27  33
BRANCH  28  37
ATOM     37  O   UNL     1      -5.027  -2.567   1.712  1.00  0.00    -0.388 OA
ATOM     38  H   UNL     1      -5.960  -2.302   1.792  1.00  0.00     0.211 HD
ENDBRANCH  28  37
ENDBRANCH  22  23
ENDBRANCH   3  22
BRANCH   5  39
ATOM     39  O   UNL     1       2.424   0.351   0.766  1.00  0.00    -0.343 OA
BRANCH  39  40
ATOM     40  C   UNL     1       3.531  -0.530   0.978  1.00  0.00     0.270 C 
ATOM     41  C   UNL     1       3.913  -1.246  -0.362  1.00  0.00     0.139 C 
ATOM     42  O   UNL     1       4.619   0.202   1.579  1.00  0.00    -0.342 OA
ATOM     43  C   UNL     1       5.388  -1.639  -0.258  1.00  0.00     0.167 C 
ATOM     44  C   UNL     1       5.506   0.758   0.592  1.00  0.00     0.178 C 
ATOM     45  C   UNL     1       6.282  -0.391  -0.108  1.00  0.00     0.176 C 
BRANCH  41  46
ATOM     46  N   UNL     1       3.681  -0.438  -1.590  1.00  0.00    -0.321 NA
ATOM     47  H   UNL     1       3.838  -1.050  -2.393  1.00  0.00     0.119 HD
ATOM     48  H   UNL     1       2.696  -0.167  -1.600  1.00  0.00     0.119 HD
ENDBRANCH  41  46
BRANCH  43  49
ATOM     49  O   UNL     1       5.806  -2.423  -1.387  1.00  0.00    -0.388 OA
ATOM     50  H   UNL     1       6.771  -2.526  -1.277  1.00  0.00     0.211 HD
ENDBRANCH  43  49
BRANCH  44  51
ATOM     51  C   UNL     1       6.404   1.783   1.284  1.00  0.00     0.191 C 
BRANCH  51  52
ATOM     52  O   UNL     1       7.178   1.154   2.310  1.00  0.00    -0.394 OA
ATOM     53  H   UNL     1       6.520   0.813   2.950  1.00  0.00     0.210 HD
ENDBRANCH  51  52
ENDBRANCH  44  51
BRANCH  45  54
ATOM     54  O   UNL     1       7.460  -0.844   0.584  1.00  0.00    -0.388 OA
ATOM     55  H   UNL     1       7.727  -0.149   1.222  1.00  0.00     0.211 HD
ENDBRANCH  45  54
ENDBRANCH  39  40
ENDBRANCH   5  39
BRANCH   4  56
ATOM     56  O   UNL     1       0.909  -1.921   1.040  1.00  0.00    -0.388 OA
ATOM     57  H   UNL     1       0.285  -2.231   0.350  1.00  0.00     0.211 HD
ENDBRANCH   4  56
TORSDOF 22
