MODEL 1
REMARK VINA RESULT:    -3.455      0.000      0.000
REMARK INTER + INTRA:          -4.406
REMARK INTER:                  -4.161
REMARK INTRA:                  -0.245
REMARK UNBOUND:                -0.245
REMARK SMILES OCC1OC(O)C(O)C(O)C1O
REMARK SMILES IDX 3 1 11 2 9 3 7 4 5 5 4 6 2 7 1 8 12 10 10 12 6 14 8 16
REMARK H PARENT 1 9 12 11 10 13 6 15 8 17
ROOT
ATOM      1  C   UNL     1      10.026  -4.616  -5.851  1.00  0.00     0.178 C 
ATOM      2  C   UNL     1       9.030  -4.117  -6.906  1.00  0.00     0.177 C 
ATOM      3  C   UNL     1       9.332  -2.656  -7.262  1.00  0.00     0.179 C 
ATOM      4  C   UNL     1       9.411  -1.781  -6.008  1.00  0.00     0.201 C 
ATOM      5  C   UNL     1      10.370  -2.404  -4.976  1.00  0.00     0.279 C 
ATOM      6  O   UNL     1       9.998  -3.753  -4.698  1.00  0.00    -0.342 OA
ENDROOT
BRANCH   1   7
ATOM      7  C   UNL     1       9.677  -6.044  -5.403  1.00  0.00     0.191 C 
BRANCH   7   8
ATOM      8  O   UNL     1      10.203  -6.990  -6.336  1.00  0.00    -0.394 OA
ATOM      9  H   UNL     1      10.126  -6.592  -7.220  1.00  0.00     0.210 HD
ENDBRANCH   7   8
ENDBRANCH   1   7
BRANCH   2  10
ATOM     10  O   UNL     1       9.096  -4.906  -8.097  1.00  0.00    -0.387 OA
ATOM     11  H   UNL     1       9.195  -5.832  -7.793  1.00  0.00     0.211 HD
ENDBRANCH   2  10
BRANCH   3  12
ATOM     12  O   UNL     1       8.297  -2.182  -8.140  1.00  0.00    -0.387 OA
ATOM     13  H   UNL     1       7.461  -2.278  -7.636  1.00  0.00     0.211 HD
ENDBRANCH   3  12
BRANCH   5  14
ATOM     14  O   UNL     1      11.739  -2.292  -5.316  1.00  0.00    -0.366 OA
ATOM     15  H   UNL     1      11.840  -2.294  -6.279  1.00  0.00     0.213 HD
ENDBRANCH   5  14
BRANCH   4  16
ATOM     16  O   UNL     1       8.070  -1.669  -5.482  1.00  0.00    -0.385 OA
ATOM     17  H   UNL     1       7.993  -2.297  -4.738  1.00  0.00     0.211 HD
ENDBRANCH   4  16
TORSDOF 6
ENDMDL
MODEL 2
REMARK VINA RESULT:    -3.416      1.203      3.445
REMARK INTER + INTRA:          -4.360
REMARK INTER:                  -4.109
REMARK INTRA:                  -0.251
REMARK UNBOUND:                -0.245
REMARK SMILES OCC1OC(O)C(O)C(O)C1O
REMARK SMILES IDX 3 1 11 2 9 3 7 4 5 5 4 6 2 7 1 8 12 10 10 12 6 14 8 16
REMARK H PARENT 1 9 12 11 10 13 6 15 8 17
ROOT
ATOM      1  C   UNL     1       9.731  -3.356  -4.646  1.00  0.00     0.178 C 
ATOM      2  C   UNL     1       9.211  -2.669  -5.916  1.00  0.00     0.177 C 
ATOM      3  C   UNL     1       8.744  -3.722  -6.928  1.00  0.00     0.179 C 
ATOM      4  C   UNL     1       9.830  -4.772  -7.181  1.00  0.00     0.201 C 
ATOM      5  C   UNL     1      10.346  -5.345  -5.847  1.00  0.00     0.279 C 
ATOM      6  O   UNL     1      10.772  -4.293  -4.982  1.00  0.00    -0.342 OA
ENDROOT
BRANCH   1   7
ATOM      7  C   UNL     1      10.300  -2.324  -3.661  1.00  0.00     0.191 C 
BRANCH   7   8
ATOM      8  O   UNL     1      10.703  -1.148  -4.364  1.00  0.00    -0.394 OA
ATOM      9  H   UNL     1      11.611  -1.299  -4.677  1.00  0.00     0.210 HD
ENDBRANCH   7   8
ENDBRANCH   1   7
BRANCH   2  10
ATOM     10  O   UNL     1       8.119  -1.794  -5.623  1.00  0.00    -0.387 OA
ATOM     11  H   UNL     1       7.597  -1.740  -6.451  1.00  0.00     0.211 HD
ENDBRANCH   2  10
BRANCH   3  12
ATOM     12  O   UNL     1       8.402  -3.051  -8.152  1.00  0.00    -0.387 OA
ATOM     13  H   UNL     1       9.248  -2.938  -8.636  1.00  0.00     0.211 HD
ENDBRANCH   3  12
BRANCH   5  14
ATOM     14  O   UNL     1       9.442  -6.224  -5.205  1.00  0.00    -0.366 OA
ATOM     15  H   UNL     1       9.927  -6.833  -4.629  1.00  0.00     0.213 HD
ENDBRANCH   5  14
BRANCH   4  16
ATOM     16  O   UNL     1      10.887  -4.123  -7.921  1.00  0.00    -0.385 OA
ATOM     17  H   UNL     1      11.458  -4.824  -8.292  1.00  0.00     0.211 HD
ENDBRANCH   4  16
TORSDOF 6
ENDMDL
MODEL 3
REMARK VINA RESULT:    -3.338      1.755      2.351
REMARK INTER + INTRA:          -4.266
REMARK INTER:                  -4.021
REMARK INTRA:                  -0.245
REMARK UNBOUND:                -0.245
REMARK SMILES OCC1OC(O)C(O)C(O)C1O
REMARK SMILES IDX 3 1 11 2 9 3 7 4 5 5 4 6 2 7 1 8 12 10 10 12 6 14 8 16
REMARK H PARENT 1 9 12 11 10 13 6 15 8 17
ROOT
ATOM      1  C   UNL     1       9.761  -3.778  -6.675  1.00  0.00     0.178 C 
ATOM      2  C   UNL     1      10.599  -3.021  -7.715  1.00  0.00     0.177 C 
ATOM      3  C   UNL     1      10.667  -1.533  -7.350  1.00  0.00     0.179 C 
ATOM      4  C   UNL     1       9.269  -0.950  -7.123  1.00  0.00     0.201 C 
ATOM      5  C   UNL     1       8.477  -1.821  -6.129  1.00  0.00     0.279 C 
ATOM      6  O   UNL     1       8.456  -3.181  -6.563  1.00  0.00    -0.342 OA
ENDROOT
BRANCH   1   7
ATOM      7  C   UNL     1       9.594  -5.251  -7.078  1.00  0.00     0.191 C 
BRANCH   7   8
ATOM      8  O   UNL     1      10.759  -5.993  -6.713  1.00  0.00    -0.394 OA
ATOM      9  H   UNL     1      11.411  -5.867  -7.422  1.00  0.00     0.210 HD
ENDBRANCH   7   8
ENDBRANCH   1   7
BRANCH   2  10
ATOM     10  O   UNL     1      11.930  -3.539  -7.788  1.00  0.00    -0.387 OA
ATOM     11  H   UNL     1      11.970  -4.253  -7.118  1.00  0.00     0.211 HD
ENDBRANCH   2  10
BRANCH   3  12
ATOM     12  O   UNL     1      11.333  -0.836  -8.417  1.00  0.00    -0.387 OA
ATOM     13  H   UNL     1      11.940  -0.203  -7.978  1.00  0.00     0.211 HD
ENDBRANCH   3  12
BRANCH   5  14
ATOM     14  O   UNL     1       8.903  -1.701  -4.786  1.00  0.00    -0.366 OA
ATOM     15  H   UNL     1       8.837  -0.778  -4.500  1.00  0.00     0.213 HD
ENDBRANCH   5  14
BRANCH   4  16
ATOM     16  O   UNL     1       8.616  -0.893  -8.411  1.00  0.00    -0.385 OA
ATOM     17  H   UNL     1       8.678  -1.782  -8.811  1.00  0.00     0.211 HD
ENDBRANCH   4  16
TORSDOF 6
ENDMDL
MODEL 4
REMARK VINA RESULT:    -3.299      1.651      3.399
REMARK INTER + INTRA:          -4.219
REMARK INTER:                  -3.973
REMARK INTRA:                  -0.246
REMARK UNBOUND:                -0.245
REMARK SMILES OCC1OC(O)C(O)C(O)C1O
REMARK SMILES IDX 3 1 11 2 9 3 7 4 5 5 4 6 2 7 1 8 12 10 10 12 6 14 8 16
REMARK H PARENT 1 9 12 11 10 13 6 15 8 17
ROOT
ATOM      1  C   UNL     1       9.147  -2.621  -6.950  1.00  0.00     0.178 C 
ATOM      2  C   UNL     1       9.868  -2.647  -5.595  1.00  0.00     0.177 C 
ATOM      3  C   UNL     1      10.304  -1.228  -5.206  1.00  0.00     0.179 C 
ATOM      4  C   UNL     1      11.102  -0.563  -6.331  1.00  0.00     0.201 C 
ATOM      5  C   UNL     1      10.337  -0.659  -7.665  1.00  0.00     0.279 C 
ATOM      6  O   UNL     1       9.991  -2.015  -7.947  1.00  0.00    -0.342 OA
ENDROOT
BRANCH   1   7
ATOM      7  C   UNL     1       8.793  -4.045  -7.406  1.00  0.00     0.191 C 
BRANCH   7   8
ATOM      8  O   UNL     1       9.567  -4.998  -6.677  1.00  0.00    -0.394 OA
ATOM      9  H   UNL     1      10.012  -5.564  -7.330  1.00  0.00     0.210 HD
ENDBRANCH   7   8
ENDBRANCH   1   7
BRANCH   2  10
ATOM     10  O   UNL     1       9.022  -3.167  -4.566  1.00  0.00    -0.387 OA
ATOM     11  H   UNL     1       9.177  -2.595  -3.785  1.00  0.00     0.211 HD
ENDBRANCH   2  10
BRANCH   3  12
ATOM     12  O   UNL     1      11.097  -1.312  -4.011  1.00  0.00    -0.387 OA
ATOM     13  H   UNL     1      11.906  -1.806  -4.265  1.00  0.00     0.211 HD
ENDBRANCH   3  12
BRANCH   5  14
ATOM     14  O   UNL     1       9.217   0.202  -7.754  1.00  0.00    -0.366 OA
ATOM     15  H   UNL     1       8.648  -0.073  -8.487  1.00  0.00     0.213 HD
ENDBRANCH   5  14
BRANCH   4  16
ATOM     16  O   UNL     1      12.377  -1.237  -6.405  1.00  0.00    -0.385 OA
ATOM     17  H   UNL     1      13.074  -0.555  -6.341  1.00  0.00     0.211 HD
ENDBRANCH   4  16
TORSDOF 6
ENDMDL
MODEL 5
REMARK VINA RESULT:    -3.239      1.623      3.036
REMARK INTER + INTRA:          -4.147
REMARK INTER:                  -3.902
REMARK INTRA:                  -0.244
REMARK UNBOUND:                -0.245
REMARK SMILES OCC1OC(O)C(O)C(O)C1O
REMARK SMILES IDX 3 1 11 2 9 3 7 4 5 5 4 6 2 7 1 8 12 10 10 12 6 14 8 16
REMARK H PARENT 1 9 12 11 10 13 6 15 8 17
ROOT
ATOM      1  C   UNL     1      10.676  -4.042  -6.248  1.00  0.00     0.178 C 
ATOM      2  C   UNL     1       9.944  -2.936  -5.475  1.00  0.00     0.177 C 
ATOM      3  C   UNL     1       8.565  -2.686  -6.099  1.00  0.00     0.179 C 
ATOM      4  C   UNL     1       8.673  -2.434  -7.605  1.00  0.00     0.201 C 
ATOM      5  C   UNL     1       9.491  -3.551  -8.281  1.00  0.00     0.279 C 
ATOM      6  O   UNL     1      10.760  -3.696  -7.644  1.00  0.00    -0.342 OA
ENDROOT
BRANCH   1   7
ATOM      7  C   UNL     1      12.099  -4.237  -5.705  1.00  0.00     0.191 C 
BRANCH   7   8
ATOM      8  O   UNL     1      12.071  -5.080  -4.552  1.00  0.00    -0.394 OA
ATOM      9  H   UNL     1      12.990  -5.192  -4.258  1.00  0.00     0.210 HD
ENDBRANCH   7   8
ENDBRANCH   1   7
BRANCH   2  10
ATOM     10  O   UNL     1       9.771  -3.291  -4.100  1.00  0.00    -0.387 OA
ATOM     11  H   UNL     1      10.470  -2.806  -3.615  1.00  0.00     0.211 HD
ENDBRANCH   2  10
BRANCH   3  12
ATOM     12  O   UNL     1       7.973  -1.552  -5.443  1.00  0.00    -0.387 OA
ATOM     13  H   UNL     1       8.149  -1.680  -4.486  1.00  0.00     0.211 HD
ENDBRANCH   3  12
BRANCH   5  14
ATOM     14  O   UNL     1       8.809  -4.786  -8.389  1.00  0.00    -0.366 OA
ATOM     15  H   UNL     1       9.399  -5.511  -8.138  1.00  0.00     0.213 HD
ENDBRANCH   5  14
BRANCH   4  16
ATOM     16  O   UNL     1       9.297  -1.143  -7.779  1.00  0.00    -0.385 OA
ATOM     17  H   UNL     1       8.727  -0.620  -8.377  1.00  0.00     0.211 HD
ENDBRANCH   4  16
TORSDOF 6
ENDMDL
MODEL 6
REMARK VINA RESULT:    -3.228      1.616      3.610
REMARK INTER + INTRA:          -4.133
REMARK INTER:                  -3.896
REMARK INTRA:                  -0.237
REMARK UNBOUND:                -0.245
REMARK SMILES OCC1OC(O)C(O)C(O)C1O
REMARK SMILES IDX 3 1 11 2 9 3 7 4 5 5 4 6 2 7 1 8 12 10 10 12 6 14 8 16
REMARK H PARENT 1 9 12 11 10 13 6 15 8 17
ROOT
ATOM      1  C   UNL     1       9.638  -2.106  -5.870  1.00  0.00     0.178 C 
ATOM      2  C   UNL     1      10.746  -3.104  -6.233  1.00  0.00     0.177 C 
ATOM      3  C   UNL     1      10.833  -3.258  -7.757  1.00  0.00     0.179 C 
ATOM      4  C   UNL     1       9.466  -3.588  -8.362  1.00  0.00     0.201 C 
ATOM      5  C   UNL     1       8.404  -2.583  -7.877  1.00  0.00     0.279 C 
ATOM      6  O   UNL     1       8.388  -2.523  -6.451  1.00  0.00    -0.342 OA
ENDROOT
BRANCH   1   7
ATOM      7  C   UNL     1       9.464  -2.015  -4.346  1.00  0.00     0.191 C 
BRANCH   7   8
ATOM      8  O   UNL     1      10.142  -3.100  -3.712  1.00  0.00    -0.394 OA
ATOM      9  H   UNL     1      10.557  -2.746  -2.907  1.00  0.00     0.210 HD
ENDBRANCH   7   8
ENDBRANCH   1   7
BRANCH   2  10
ATOM     10  O   UNL     1      12.017  -2.671  -5.740  1.00  0.00    -0.387 OA
ATOM     11  H   UNL     1      12.118  -3.100  -4.865  1.00  0.00     0.211 HD
ENDBRANCH   2  10
BRANCH   3  12
ATOM     12  O   UNL     1      11.777  -4.301  -8.052  1.00  0.00    -0.387 OA
ATOM     13  H   UNL     1      12.615  -4.027  -7.620  1.00  0.00     0.211 HD
ENDBRANCH   3  12
BRANCH   5  14
ATOM     14  O   UNL     1       8.513  -1.298  -8.459  1.00  0.00    -0.366 OA
ATOM     15  H   UNL     1       9.389  -1.191  -8.859  1.00  0.00     0.213 HD
ENDBRANCH   5  14
BRANCH   4  16
ATOM     16  O   UNL     1       9.137  -4.937  -7.963  1.00  0.00    -0.385 OA
ATOM     17  H   UNL     1       8.341  -5.205  -8.462  1.00  0.00     0.211 HD
ENDBRANCH   4  16
TORSDOF 6
ENDMDL
MODEL 7
REMARK VINA RESULT:    -3.207      1.676      3.017
REMARK INTER + INTRA:          -4.108
REMARK INTER:                  -3.866
REMARK INTRA:                  -0.242
REMARK UNBOUND:                -0.245
REMARK SMILES OCC1OC(O)C(O)C(O)C1O
REMARK SMILES IDX 3 1 11 2 9 3 7 4 5 5 4 6 2 7 1 8 12 10 10 12 6 14 8 16
REMARK H PARENT 1 9 12 11 10 13 6 15 8 17
ROOT
ATOM      1  C   UNL     1      10.360  -2.258  -5.534  1.00  0.00     0.178 C 
ATOM      2  C   UNL     1       9.424  -3.339  -6.093  1.00  0.00     0.177 C 
ATOM      3  C   UNL     1       9.753  -3.605  -7.567  1.00  0.00     0.179 C 
ATOM      4  C   UNL     1       9.768  -2.307  -8.378  1.00  0.00     0.201 C 
ATOM      5  C   UNL     1      10.668  -1.257  -7.698  1.00  0.00     0.279 C 
ATOM      6  O   UNL     1      10.275  -1.067  -6.339  1.00  0.00    -0.342 OA
ENDROOT
BRANCH   1   7
ATOM      7  C   UNL     1       9.981  -1.902  -4.089  1.00  0.00     0.191 C 
BRANCH   7   8
ATOM      8  O   UNL     1      10.607  -2.810  -3.181  1.00  0.00    -0.394 OA
ATOM      9  H   UNL     1      11.473  -3.038  -3.559  1.00  0.00     0.210 HD
ENDBRANCH   7   8
ENDBRANCH   1   7
BRANCH   2  10
ATOM     10  O   UNL     1       9.550  -4.563  -5.363  1.00  0.00    -0.387 OA
ATOM     11  H   UNL     1       8.636  -4.900  -5.258  1.00  0.00     0.211 HD
ENDBRANCH   2  10
BRANCH   3  12
ATOM     12  O   UNL     1       8.768  -4.512  -8.092  1.00  0.00    -0.387 OA
ATOM     13  H   UNL     1       8.305  -4.879  -7.308  1.00  0.00     0.211 HD
ENDBRANCH   3  12
BRANCH   5  14
ATOM     14  O   UNL     1      12.054  -1.518  -7.816  1.00  0.00    -0.366 OA
ATOM     15  H   UNL     1      12.427  -1.717  -6.944  1.00  0.00     0.213 HD
ENDBRANCH   5  14
BRANCH   4  16
ATOM     16  O   UNL     1       8.402  -1.847  -8.474  1.00  0.00    -0.385 OA
ATOM     17  H   UNL     1       7.893  -2.289  -7.767  1.00  0.00     0.211 HD
ENDBRANCH   4  16
TORSDOF 6
ENDMDL
MODEL 8
REMARK VINA RESULT:    -3.198      1.372      4.085
REMARK INTER + INTRA:          -4.097
REMARK INTER:                  -3.857
REMARK INTRA:                  -0.241
REMARK UNBOUND:                -0.245
REMARK SMILES OCC1OC(O)C(O)C(O)C1O
REMARK SMILES IDX 3 1 11 2 9 3 7 4 5 5 4 6 2 7 1 8 12 10 10 12 6 14 8 16
REMARK H PARENT 1 9 12 11 10 13 6 15 8 17
ROOT
ATOM      1  C   UNL     1       9.662  -2.355  -7.751  1.00  0.00     0.178 C 
ATOM      2  C   UNL     1      10.505  -1.873  -6.562  1.00  0.00     0.177 C 
ATOM      3  C   UNL     1      11.060  -3.078  -5.791  1.00  0.00     0.179 C 
ATOM      4  C   UNL     1       9.948  -4.060  -5.416  1.00  0.00     0.201 C 
ATOM      5  C   UNL     1       9.107  -4.421  -6.656  1.00  0.00     0.279 C 
ATOM      6  O   UNL     1       8.622  -3.239  -7.292  1.00  0.00    -0.342 OA
ENDROOT
BRANCH   1   7
ATOM      7  C   UNL     1       9.011  -1.166  -8.474  1.00  0.00     0.191 C 
BRANCH   7   8
ATOM      8  O   UNL     1       9.075   0.000  -7.653  1.00  0.00    -0.394 OA
ATOM      9  H   UNL     1       8.289   0.535  -7.855  1.00  0.00     0.210 HD
ENDBRANCH   7   8
ENDBRANCH   1   7
BRANCH   2  10
ATOM     10  O   UNL     1      11.598  -1.059  -6.995  1.00  0.00    -0.387 OA
ATOM     11  H   UNL     1      11.225  -0.161  -7.111  1.00  0.00     0.211 HD
ENDBRANCH   2  10
BRANCH   3  12
ATOM     12  O   UNL     1      11.720  -2.593  -4.610  1.00  0.00    -0.387 OA
ATOM     13  H   UNL     1      11.256  -3.019  -3.857  1.00  0.00     0.211 HD
ENDBRANCH   3  12
BRANCH   5  14
ATOM     14  O   UNL     1       9.759  -5.284  -7.568  1.00  0.00    -0.366 OA
ATOM     15  H   UNL     1       9.687  -4.928  -8.466  1.00  0.00     0.213 HD
ENDBRANCH   5  14
BRANCH   4  16
ATOM     16  O   UNL     1       9.142  -3.425  -4.399  1.00  0.00    -0.385 OA
ATOM     17  H   UNL     1       8.765  -4.132  -3.839  1.00  0.00     0.211 HD
ENDBRANCH   4  16
TORSDOF 6
ENDMDL
