REMARK SMILES OCC1OC(O)C(O)C(O)C1O
REMARK SMILES IDX 3 1 11 2 9 3 7 4 5 5 4 6 2 7 1 8 12 10 10 12 6 14 8 16
REMARK H PARENT 1 9 12 11 10 13 6 15 8 17
ROOT
ATOM      1  C   UNL     1      -1.039  -0.227   0.023  1.00  0.00     0.178 C 
ATOM      2  C   UNL     1      -0.169   1.028   0.181  1.00  0.00     0.177 C 
ATOM      3  C   UNL     1       1.026   0.961  -0.778  1.00  0.00     0.179 C 
ATOM      4  C   UNL     1       1.790  -0.357  -0.625  1.00  0.00     0.201 C 
ATOM      5  C   UNL     1       0.824  -1.554  -0.716  1.00  0.00     0.279 C 
ATOM      6  O   UNL     1      -0.241  -1.409   0.223  1.00  0.00    -0.342 OA
ENDROOT
BRANCH   1   7
ATOM      7  C   UNL     1      -2.184  -0.229   1.047  1.00  0.00     0.191 C 
BRANCH   7   8
ATOM      8  O   UNL     1      -3.104  -1.280   0.749  1.00  0.00    -0.394 OA
ATOM      9  H   UNL     1      -3.767  -1.289   1.460  1.00  0.00     0.210 HD
ENDBRANCH   7   8
ENDBRANCH   1   7
BRANCH   2  10
ATOM     10  O   UNL     1      -0.916   2.216  -0.095  1.00  0.00    -0.387 OA
ATOM     11  H   UNL     1      -0.250   2.929  -0.185  1.00  0.00     0.211 HD
ENDBRANCH   2  10
BRANCH   3  12
ATOM     12  O   UNL     1       1.890   2.076  -0.501  1.00  0.00    -0.387 OA
ATOM     13  H   UNL     1       2.535   1.750   0.163  1.00  0.00     0.211 HD
ENDBRANCH   3  12
BRANCH   5  14
ATOM     14  O   UNL     1       0.346  -1.815  -2.022  1.00  0.00    -0.366 OA
ATOM     15  H   UNL     1       0.075  -0.987  -2.445  1.00  0.00     0.213 HD
ENDBRANCH   5  14
BRANCH   4  16
ATOM     16  O   UNL     1       2.460  -0.316   0.654  1.00  0.00    -0.385 OA
ATOM     17  H   UNL     1       1.941  -0.864   1.275  1.00  0.00     0.211 HD
ENDBRANCH   4  16
TORSDOF 6
