REMARK SMILES CNC(C)C1CCC(N)C(OC2C(N)CC(N)C(OC3OCC(C)(O)C3NC)C2O)O1
REMARK SMILES IDX 12 1 13 2 15 3 16 4 18 5 29 6 11 7 10 8 5 9 6 10 31 11 7 12
REMARK SMILES IDX 8 13 3 14 4 15 2 16 1 17 9 19 14 22 30 25 19 27 20 28 26 29
REMARK SMILES IDX 21 30 23 31 22 32 24 33 27 34 28 35 25 37 17 39
REMARK H PARENT 2 18 9 20 9 21 14 23 14 24 30 26 27 36 25 38 17 40 17 41
ROOT
ATOM      1  C   UNL     1       0.338  -1.301   0.555  1.00  0.00     0.169 C 
ATOM      2  C   UNL     1       0.695  -1.893  -0.843  1.00  0.00     0.084 C 
ATOM      3  C   UNL     1      -0.453  -2.684  -1.475  1.00  0.00     0.043 C 
ATOM      4  C   UNL     1      -1.729  -1.835  -1.618  1.00  0.00     0.084 C 
ATOM      5  C   UNL     1      -1.959  -0.872  -0.414  1.00  0.00     0.169 C 
ATOM      6  C   UNL     1      -1.177  -1.298   0.834  1.00  0.00     0.175 C 
ENDROOT
BRANCH   1   7
ATOM      7  O   UNL     1       0.760   0.072   0.646  1.00  0.00    -0.343 OA
BRANCH   7   8
ATOM      8  C   UNL     1       2.181   0.267   0.664  1.00  0.00     0.267 C 
ATOM      9  C   UNL     1       3.933   1.342  -0.613  1.00  0.00     0.138 C 
ATOM     10  C   UNL     1       4.330   2.181   0.611  1.00  0.00     0.035 C 
ATOM     11  O   UNL     1       2.548   0.961  -0.531  1.00  0.00    -0.346 OA
ATOM     12  C   UNL     1       3.986   1.494   1.926  1.00  0.00     0.027 C 
ATOM     13  C   UNL     1       2.507   1.115   1.928  1.00  0.00     0.108 C 
BRANCH   9  14
ATOM     14  C   UNL     1       4.864   0.120  -0.902  1.00  0.00     0.079 C 
ATOM     15  C   UNL     1       4.460  -0.570  -2.213  1.00  0.00     0.027 C 
BRANCH  14  16
ATOM     16  N   UNL     1       6.309   0.419  -0.871  1.00  0.00    -0.315 NA
ATOM     17  C   UNL     1       6.774   1.333  -1.907  1.00  0.00     0.101 C 
ATOM     18  H   UNL     1       6.829  -0.456  -0.950  1.00  0.00     0.122 HD
ENDBRANCH  14  16
ENDBRANCH   9  14
BRANCH  13  19
ATOM     19  N   UNL     1       2.161   0.452   3.201  1.00  0.00    -0.323 NA
ATOM     20  H   UNL     1       1.167   0.213   3.158  1.00  0.00     0.119 HD
ATOM     21  H   UNL     1       2.654  -0.440   3.268  1.00  0.00     0.119 HD
ENDBRANCH  13  19
ENDBRANCH   7   8
ENDBRANCH   1   7
BRANCH   2  22
ATOM     22  N   UNL     1       1.886  -2.764  -0.748  1.00  0.00    -0.325 NA
ATOM     23  H   UNL     1       2.109  -3.124  -1.678  1.00  0.00     0.119 HD
ATOM     24  H   UNL     1       1.650  -3.589  -0.192  1.00  0.00     0.119 HD
ENDBRANCH   2  22
BRANCH   6  25
ATOM     25  O   UNL     1      -1.625  -2.585   1.285  1.00  0.00    -0.388 OA
ATOM     26  H   UNL     1      -2.600  -2.525   1.267  1.00  0.00     0.211 HD
ENDBRANCH   6  25
BRANCH   5  27
ATOM     27  O   UNL     1      -3.349  -0.828  -0.050  1.00  0.00    -0.343 OA
BRANCH  27  28
ATOM     28  C   UNL     1      -4.106   0.110  -0.810  1.00  0.00     0.270 C 
ATOM     29  C   UNL     1      -4.569   1.316   0.031  1.00  0.00     0.144 C 
ATOM     30  O   UNL     1      -5.323  -0.541  -1.210  1.00  0.00    -0.348 OA
ATOM     31  C   UNL     1      -5.742   0.702   0.825  1.00  0.00     0.105 C 
ATOM     32  C   UNL     1      -6.300  -0.327  -0.174  1.00  0.00     0.200 C 
ATOM     33  C   UNL     1      -5.372   0.039   2.155  1.00  0.00     0.046 C 
BRANCH  29  34
ATOM     34  N   UNL     1      -3.578   2.022   0.861  1.00  0.00    -0.310 NA
ATOM     35  C   UNL     1      -2.722   2.898   0.073  1.00  0.00     0.102 C 
ATOM     36  H   UNL     1      -4.078   2.585   1.553  1.00  0.00     0.122 HD
ENDBRANCH  29  34
BRANCH  31  37
ATOM     37  O   UNL     1      -6.716   1.711   1.136  1.00  0.00    -0.386 OA
ATOM     38  H   UNL     1      -7.027   2.107   0.305  1.00  0.00     0.211 HD
ENDBRANCH  31  37
ENDBRANCH  27  28
ENDBRANCH   5  27
BRANCH   4  39
ATOM     39  N   UNL     1      -2.857  -2.739  -1.911  1.00  0.00    -0.325 NA
ATOM     40  H   UNL     1      -2.922  -3.437  -1.169  1.00  0.00     0.119 HD
ATOM     41  H   UNL     1      -3.729  -2.209  -1.819  1.00  0.00     0.119 HD
ENDBRANCH   4  39
TORSDOF 12
