MODEL 1
REMARK VINA RESULT:    -4.451      0.000      0.000
REMARK INTER + INTRA:          -8.504
REMARK INTER:                  -7.444
REMARK INTRA:                  -1.059
REMARK UNBOUND:                -1.059
REMARK SMILES NCC1OC(OC2C(N)CC(N)C(OC3OC(CO)C(O)C(O)C3N)C2O)C(O)C(O)C1O
REMARK SMILES IDX 10 1 8 2 7 3 26 4 13 5 11 6 9 7 12 10 6 13 5 14 28 15 4 16
REMARK SMILES IDX 30 17 3 18 32 19 29 20 31 22 2 24 1 25 33 28 14 30 15 31
REMARK SMILES IDX 24 32 16 33 22 34 17 35 20 36 25 37 23 40 18 42 19 43 21 45
REMARK SMILES IDX 27 47
REMARK H PARENT 9 8 9 9 12 11 12 12 29 21 31 23 1 26 1 27 33 29 25 38 25 39
REMARK H PARENT 23 41 19 44 21 46 27 48
ROOT
ATOM      1  C   UNL     1      13.324  -1.410  -0.091  1.00  0.00     0.043 C 
ATOM      2  C   UNL     1      13.380  -1.443  -1.635  1.00  0.00     0.084 C 
ATOM      3  C   UNL     1      12.189  -2.220  -2.240  1.00  0.00     0.169 C 
ATOM      4  C   UNL     1      12.165  -3.684  -1.738  1.00  0.00     0.175 C 
ATOM      5  C   UNL     1      12.742  -3.861  -0.318  1.00  0.00     0.169 C 
ATOM      6  C   UNL     1      12.570  -2.592   0.539  1.00  0.00     0.084 C 
ENDROOT
BRANCH   2   7
ATOM      7  N   UNL     1      13.489  -0.072  -2.164  1.00  0.00    -0.325 NA
ATOM      8  H   UNL     1      12.573   0.238  -2.493  1.00  0.00     0.119 HD
ATOM      9  H   UNL     1      14.094  -0.068  -2.986  1.00  0.00     0.119 HD
ENDBRANCH   2   7
BRANCH   6  10
ATOM     10  N   UNL     1      11.144  -2.253   0.708  1.00  0.00    -0.325 NA
ATOM     11  H   UNL     1      10.638  -2.686  -0.070  1.00  0.00     0.119 HD
ATOM     12  H   UNL     1      10.790  -2.716   1.546  1.00  0.00     0.119 HD
ENDBRANCH   6  10
BRANCH   3  13
ATOM     13  O   UNL     1      12.296  -2.256  -3.682  1.00  0.00    -0.342 OA
BRANCH  13  14
ATOM     14  C   UNL     1      11.008  -2.304  -4.307  1.00  0.00     0.282 C 
ATOM     15  C   UNL     1      10.945  -1.181  -5.371  1.00  0.00     0.202 C 
ATOM     16  O   UNL     1      10.837  -3.574  -4.934  1.00  0.00    -0.342 OA
ATOM     17  C   UNL     1      10.058  -1.592  -6.554  1.00  0.00     0.179 C 
ATOM     18  C   UNL     1       9.484  -3.763  -5.411  1.00  0.00     0.166 C 
ATOM     19  C   UNL     1       8.918  -2.498  -6.092  1.00  0.00     0.176 C 
BRANCH  15  20
ATOM     20  O   UNL     1      12.248  -0.863  -5.903  1.00  0.00    -0.385 OA
ATOM     21  H   UNL     1      12.874  -1.266  -5.268  1.00  0.00     0.211 HD
ENDBRANCH  15  20
BRANCH  17  22
ATOM     22  O   UNL     1       9.506  -0.415  -7.167  1.00  0.00    -0.387 OA
ATOM     23  H   UNL     1       9.222   0.154  -6.422  1.00  0.00     0.211 HD
ENDBRANCH  17  22
BRANCH  18  24
ATOM     24  C   UNL     1       9.519  -4.946  -6.399  1.00  0.00     0.112 C 
BRANCH  24  25
ATOM     25  N   UNL     1       9.773  -6.225  -5.719  1.00  0.00    -0.328 NA
ATOM     26  H   UNL     1       9.672  -6.985  -6.392  1.00  0.00     0.118 HD
ATOM     27  H   UNL     1       9.005  -6.365  -5.058  1.00  0.00     0.118 HD
ENDBRANCH  24  25
ENDBRANCH  18  24
BRANCH  19  28
ATOM     28  O   UNL     1       8.125  -1.759  -5.145  1.00  0.00    -0.388 OA
ATOM     29  H   UNL     1       8.142  -0.834  -5.469  1.00  0.00     0.211 HD
ENDBRANCH  19  28
ENDBRANCH  13  14
ENDBRANCH   3  13
BRANCH   5  30
ATOM     30  O   UNL     1      12.064  -4.953   0.337  1.00  0.00    -0.343 OA
BRANCH  30  31
ATOM     31  C   UNL     1      12.814  -5.465   1.450  1.00  0.00     0.270 C 
ATOM     32  C   UNL     1      12.211  -6.853   1.868  1.00  0.00     0.139 C 
ATOM     33  O   UNL     1      12.852  -4.488   2.497  1.00  0.00    -0.342 OA
ATOM     34  C   UNL     1      12.519  -7.110   3.347  1.00  0.00     0.167 C 
ATOM     35  C   UNL     1      11.793  -4.654   3.455  1.00  0.00     0.178 C 
ATOM     36  C   UNL     1      11.967  -5.973   4.238  1.00  0.00     0.176 C 
BRANCH  32  37
ATOM     37  N   UNL     1      10.756  -6.976   1.610  1.00  0.00    -0.321 NA
ATOM     38  H   UNL     1      10.251  -6.992   2.496  1.00  0.00     0.119 HD
ATOM     39  H   UNL     1      10.610  -7.897   1.185  1.00  0.00     0.119 HD
ENDBRANCH  32  37
BRANCH  34  40
ATOM     40  O   UNL     1      13.945  -7.215   3.548  1.00  0.00    -0.388 OA
ATOM     41  H   UNL     1      14.137  -6.884   4.446  1.00  0.00     0.211 HD
ENDBRANCH  34  40
BRANCH  35  42
ATOM     42  C   UNL     1      11.796  -3.423   4.367  1.00  0.00     0.191 C 
BRANCH  42  43
ATOM     43  O   UNL     1      13.145  -2.976   4.553  1.00  0.00    -0.394 OA
ATOM     44  H   UNL     1      13.270  -2.971   5.521  1.00  0.00     0.210 HD
ENDBRANCH  42  43
ENDBRANCH  35  42
BRANCH  36  45
ATOM     45  O   UNL     1      12.844  -5.815   5.365  1.00  0.00    -0.388 OA
ATOM     46  H   UNL     1      12.354  -5.224   5.977  1.00  0.00     0.211 HD
ENDBRANCH  36  45
ENDBRANCH  30  31
ENDBRANCH   5  30
BRANCH   4  47
ATOM     47  O   UNL     1      12.915  -4.532  -2.633  1.00  0.00    -0.388 OA
ATOM     48  H   UNL     1      13.852  -4.354  -2.413  1.00  0.00     0.211 HD
ENDBRANCH   4  47
TORSDOF 17
ENDMDL
MODEL 2
REMARK VINA RESULT:    -3.535      2.394      8.590
REMARK INTER + INTRA:          -6.971
REMARK INTER:                  -6.572
REMARK INTRA:                  -0.400
REMARK UNBOUND:                -1.059
REMARK SMILES NCC1OC(OC2C(N)CC(N)C(OC3OC(CO)C(O)C(O)C3N)C2O)C(O)C(O)C1O
REMARK SMILES IDX 10 1 8 2 7 3 26 4 13 5 11 6 9 7 12 10 6 13 5 14 28 15 4 16
REMARK SMILES IDX 30 17 3 18 32 19 29 20 31 22 2 24 1 25 33 28 14 30 15 31
REMARK SMILES IDX 24 32 16 33 22 34 17 35 20 36 25 37 23 40 18 42 19 43 21 45
REMARK SMILES IDX 27 47
REMARK H PARENT 9 8 9 9 12 11 12 12 29 21 31 23 1 26 1 27 33 29 25 38 25 39
REMARK H PARENT 23 41 19 44 21 46 27 48
ROOT
ATOM      1  C   UNL     1      12.187  -0.950  -2.494  1.00  0.00     0.043 C 
ATOM      2  C   UNL     1      12.563  -2.030  -1.455  1.00  0.00     0.084 C 
ATOM      3  C   UNL     1      13.728  -2.921  -1.941  1.00  0.00     0.169 C 
ATOM      4  C   UNL     1      13.364  -3.643  -3.260  1.00  0.00     0.175 C 
ATOM      5  C   UNL     1      12.391  -2.848  -4.154  1.00  0.00     0.169 C 
ATOM      6  C   UNL     1      12.524  -1.328  -3.946  1.00  0.00     0.084 C 
ENDROOT
BRANCH   2   7
ATOM      7  N   UNL     1      12.838  -1.398  -0.151  1.00  0.00    -0.325 NA
ATOM      8  H   UNL     1      13.407  -0.562  -0.294  1.00  0.00     0.119 HD
ATOM      9  H   UNL     1      13.407  -2.024   0.420  1.00  0.00     0.119 HD
ENDBRANCH   2   7
BRANCH   6  10
ATOM     10  N   UNL     1      13.881  -0.860  -4.290  1.00  0.00    -0.325 NA
ATOM     11  H   UNL     1      14.539  -1.410  -3.730  1.00  0.00     0.119 HD
ATOM     12  H   UNL     1      14.082  -1.111  -5.258  1.00  0.00     0.119 HD
ENDBRANCH   6  10
BRANCH   3  13
ATOM     13  O   UNL     1      14.026  -3.936  -0.955  1.00  0.00    -0.342 OA
BRANCH  13  14
ATOM     14  C   UNL     1      13.097  -3.904   0.135  1.00  0.00     0.282 C 
ATOM     15  C   UNL     1      12.405  -5.286   0.220  1.00  0.00     0.202 C 
ATOM     16  O   UNL     1      13.803  -3.641   1.346  1.00  0.00    -0.342 OA
ATOM     17  C   UNL     1      12.049  -5.635   1.672  1.00  0.00     0.179 C 
ATOM     18  C   UNL     1      12.904  -3.397   2.453  1.00  0.00     0.166 C 
ATOM     19  C   UNL     1      11.710  -4.376   2.468  1.00  0.00     0.176 C 
BRANCH  15  20
ATOM     20  O   UNL     1      13.245  -6.347  -0.280  1.00  0.00    -0.385 OA
ATOM     21  H   UNL     1      13.179  -7.049   0.399  1.00  0.00     0.211 HD
ENDBRANCH  15  20
BRANCH  17  22
ATOM     22  O   UNL     1      10.917  -6.520   1.686  1.00  0.00    -0.387 OA
ATOM     23  H   UNL     1      10.133  -5.934   1.703  1.00  0.00     0.211 HD
ENDBRANCH  17  22
BRANCH  18  24
ATOM     24  C   UNL     1      13.737  -3.531   3.744  1.00  0.00     0.112 C 
BRANCH  24  25
ATOM     25  N   UNL     1      13.466  -2.439   4.691  1.00  0.00    -0.328 NA
ATOM     26  H   UNL     1      13.134  -1.625   4.174  1.00  0.00     0.118 HD
ATOM     27  H   UNL     1      14.371  -2.148   5.072  1.00  0.00     0.118 HD
ENDBRANCH  24  25
ENDBRANCH  18  24
BRANCH  19  28
ATOM     28  O   UNL     1      10.573  -3.753   1.842  1.00  0.00    -0.388 OA
ATOM     29  H   UNL     1       9.960  -4.491   1.642  1.00  0.00     0.211 HD
ENDBRANCH  19  28
ENDBRANCH  13  14
ENDBRANCH   3  13
BRANCH   5  30
ATOM     30  O   UNL     1      12.664  -3.148  -5.538  1.00  0.00    -0.343 OA
BRANCH  30  31
ATOM     31  C   UNL     1      11.575  -3.844  -6.166  1.00  0.00     0.270 C 
ATOM     32  C   UNL     1      11.901  -4.016  -7.692  1.00  0.00     0.139 C 
ATOM     33  O   UNL     1      10.344  -3.164  -5.888  1.00  0.00    -0.342 OA
ATOM     34  C   UNL     1      10.589  -4.144  -8.474  1.00  0.00     0.167 C 
ATOM     35  C   UNL     1       9.992  -2.209  -6.903  1.00  0.00     0.178 C 
ATOM     36  C   UNL     1       9.674  -2.920  -8.236  1.00  0.00     0.176 C 
BRANCH  32  37
ATOM     37  N   UNL     1      12.736  -2.927  -8.253  1.00  0.00    -0.321 NA
ATOM     38  H   UNL     1      13.237  -2.456  -7.500  1.00  0.00     0.119 HD
ATOM     39  H   UNL     1      12.091  -2.232  -8.642  1.00  0.00     0.119 HD
ENDBRANCH  32  37
BRANCH  34  40
ATOM     40  O   UNL     1       9.886  -5.341  -8.076  1.00  0.00    -0.388 OA
ATOM     41  H   UNL     1      10.306  -6.092  -8.537  1.00  0.00     0.211 HD
ENDBRANCH  34  40
BRANCH  35  42
ATOM     42  C   UNL     1       8.810  -1.389  -6.376  1.00  0.00     0.191 C 
BRANCH  42  43
ATOM     43  O   UNL     1       8.040  -2.195  -5.474  1.00  0.00    -0.394 OA
ATOM     44  H   UNL     1       7.304  -2.535  -6.017  1.00  0.00     0.210 HD
ENDBRANCH  42  43
ENDBRANCH  35  42
BRANCH  36  45
ATOM     45  O   UNL     1       8.307  -3.358  -8.296  1.00  0.00    -0.388 OA
ATOM     46  H   UNL     1       7.786  -2.582  -7.997  1.00  0.00     0.211 HD
ENDBRANCH  36  45
ENDBRANCH  30  31
ENDBRANCH   5  30
BRANCH   4  47
ATOM     47  O   UNL     1      12.766  -4.926  -2.978  1.00  0.00    -0.388 OA
ATOM     48  H   UNL     1      13.241  -5.249  -2.186  1.00  0.00     0.211 HD
ENDBRANCH   4  47
TORSDOF 17
ENDMDL
MODEL 3
REMARK VINA RESULT:    -3.312      1.624      2.201
REMARK INTER + INTRA:          -6.597
REMARK INTER:                  -5.358
REMARK INTRA:                  -1.239
REMARK UNBOUND:                -1.059
REMARK SMILES NCC1OC(OC2C(N)CC(N)C(OC3OC(CO)C(O)C(O)C3N)C2O)C(O)C(O)C1O
REMARK SMILES IDX 10 1 8 2 7 3 26 4 13 5 11 6 9 7 12 10 6 13 5 14 28 15 4 16
REMARK SMILES IDX 30 17 3 18 32 19 29 20 31 22 2 24 1 25 33 28 14 30 15 31
REMARK SMILES IDX 24 32 16 33 22 34 17 35 20 36 25 37 23 40 18 42 19 43 21 45
REMARK SMILES IDX 27 47
REMARK H PARENT 9 8 9 9 12 11 12 12 29 21 31 23 1 26 1 27 33 29 25 38 25 39
REMARK H PARENT 23 41 19 44 21 46 27 48
ROOT
ATOM      1  C   UNL     1      12.247  -2.132   0.464  1.00  0.00     0.043 C 
ATOM      2  C   UNL     1      13.026  -2.191  -0.869  1.00  0.00     0.084 C 
ATOM      3  C   UNL     1      12.550  -3.355  -1.767  1.00  0.00     0.169 C 
ATOM      4  C   UNL     1      12.731  -4.717  -1.055  1.00  0.00     0.175 C 
ATOM      5  C   UNL     1      12.599  -4.637   0.479  1.00  0.00     0.169 C 
ATOM      6  C   UNL     1      11.677  -3.485   0.922  1.00  0.00     0.084 C 
ENDROOT
BRANCH   2   7
ATOM      7  N   UNL     1      12.956  -0.885  -1.550  1.00  0.00    -0.325 NA
ATOM      8  H   UNL     1      11.990  -0.697  -1.823  1.00  0.00     0.119 HD
ATOM      9  H   UNL     1      13.486  -0.923  -2.421  1.00  0.00     0.119 HD
ENDBRANCH   2   7
BRANCH   6  10
ATOM     10  N   UNL     1      10.310  -3.664   0.395  1.00  0.00    -0.325 NA
ATOM     11  H   UNL     1       9.936  -4.519   0.816  1.00  0.00     0.119 HD
ATOM     12  H   UNL     1       9.718  -2.912   0.748  1.00  0.00     0.119 HD
ENDBRANCH   6  10
BRANCH   3  13
ATOM     13  O   UNL     1      13.325  -3.395  -2.987  1.00  0.00    -0.342 OA
BRANCH  13  14
ATOM     14  C   UNL     1      12.583  -2.886  -4.102  1.00  0.00     0.282 C 
ATOM     15  C   UNL     1      12.547  -3.979  -5.198  1.00  0.00     0.202 C 
ATOM     16  O   UNL     1      11.254  -2.580  -3.681  1.00  0.00    -0.342 OA
ATOM     17  C   UNL     1      11.242  -3.909  -6.003  1.00  0.00     0.179 C 
ATOM     18  C   UNL     1      10.512  -1.877  -4.704  1.00  0.00     0.166 C 
ATOM     19  C   UNL     1      10.745  -2.469  -6.112  1.00  0.00     0.176 C 
BRANCH  15  20
ATOM     20  O   UNL     1      12.636  -5.308  -4.643  1.00  0.00    -0.385 OA
ATOM     21  H   UNL     1      11.951  -5.817  -5.122  1.00  0.00     0.211 HD
ENDBRANCH  15  20
BRANCH  17  22
ATOM     22  O   UNL     1      11.468  -4.430  -7.323  1.00  0.00    -0.387 OA
ATOM     23  H   UNL     1      11.019  -5.300  -7.336  1.00  0.00     0.211 HD
ENDBRANCH  17  22
BRANCH  18  24
ATOM     24  C   UNL     1       9.022  -1.962  -4.315  1.00  0.00     0.112 C 
BRANCH  24  25
ATOM     25  N   UNL     1       8.140  -1.879  -5.489  1.00  0.00    -0.328 NA
ATOM     26  H   UNL     1       8.350  -2.654  -6.118  1.00  0.00     0.118 HD
ATOM     27  H   UNL     1       8.420  -1.044  -6.010  1.00  0.00     0.118 HD
ENDBRANCH  24  25
ENDBRANCH  18  24
BRANCH  19  28
ATOM     28  O   UNL     1      11.758  -1.704  -6.791  1.00  0.00    -0.388 OA
ATOM     29  H   UNL     1      12.598  -1.954  -6.352  1.00  0.00     0.211 HD
ENDBRANCH  19  28
ENDBRANCH  13  14
ENDBRANCH   3  13
BRANCH   5  30
ATOM     30  O   UNL     1      12.054  -5.877   0.975  1.00  0.00    -0.343 OA
BRANCH  30  31
ATOM     31  C   UNL     1      12.881  -6.463   1.993  1.00  0.00     0.270 C 
ATOM     32  C   UNL     1      12.118  -7.683   2.621  1.00  0.00     0.139 C 
ATOM     33  O   UNL     1      13.276  -5.456   2.932  1.00  0.00    -0.342 OA
ATOM     34  C   UNL     1      12.627  -7.914   4.049  1.00  0.00     0.167 C 
ATOM     35  C   UNL     1      12.387  -5.361   4.058  1.00  0.00     0.178 C 
ATOM     36  C   UNL     1      12.453  -6.645   4.914  1.00  0.00     0.176 C 
BRANCH  32  37
ATOM     37  N   UNL     1      10.642  -7.537   2.612  1.00  0.00    -0.321 NA
ATOM     38  H   UNL     1      10.343  -7.138   1.723  1.00  0.00     0.119 HD
ATOM     39  H   UNL     1      10.412  -6.841   3.327  1.00  0.00     0.119 HD
ENDBRANCH  32  37
BRANCH  34  40
ATOM     40  O   UNL     1      14.023  -8.281   4.026  1.00  0.00    -0.388 OA
ATOM     41  H   UNL     1      14.540  -7.454   4.004  1.00  0.00     0.211 HD
ENDBRANCH  34  40
BRANCH  35  42
ATOM     42  C   UNL     1      12.772  -4.106   4.848  1.00  0.00     0.191 C 
BRANCH  42  43
ATOM     43  O   UNL     1      11.966  -3.005   4.409  1.00  0.00    -0.394 OA
ATOM     44  H   UNL     1      12.285  -2.814   3.506  1.00  0.00     0.210 HD
ENDBRANCH  42  43
ENDBRANCH  35  42
BRANCH  36  45
ATOM     45  O   UNL     1      13.526  -6.597   5.868  1.00  0.00    -0.388 OA
ATOM     46  H   UNL     1      13.882  -7.511   5.884  1.00  0.00     0.211 HD
ENDBRANCH  36  45
ENDBRANCH  30  31
ENDBRANCH   5  30
BRANCH   4  47
ATOM     47  O   UNL     1      14.026  -5.274  -1.363  1.00  0.00    -0.388 OA
ATOM     48  H   UNL     1      14.265  -4.876  -2.225  1.00  0.00     0.211 HD
ENDBRANCH   4  47
TORSDOF 17
ENDMDL
MODEL 4
REMARK VINA RESULT:    -2.264      2.279      8.624
REMARK INTER + INTRA:          -4.846
REMARK INTER:                  -6.234
REMARK INTRA:                   1.388
REMARK UNBOUND:                -1.059
REMARK SMILES NCC1OC(OC2C(N)CC(N)C(OC3OC(CO)C(O)C(O)C3N)C2O)C(O)C(O)C1O
REMARK SMILES IDX 10 1 8 2 7 3 26 4 13 5 11 6 9 7 12 10 6 13 5 14 28 15 4 16
REMARK SMILES IDX 30 17 3 18 32 19 29 20 31 22 2 24 1 25 33 28 14 30 15 31
REMARK SMILES IDX 24 32 16 33 22 34 17 35 20 36 25 37 23 40 18 42 19 43 21 45
REMARK SMILES IDX 27 47
REMARK H PARENT 9 8 9 9 12 11 12 12 29 21 31 23 1 26 1 27 33 29 25 38 25 39
REMARK H PARENT 23 41 19 44 21 46 27 48
ROOT
ATOM      1  C   UNL     1      14.026  -4.739  -2.015  1.00  0.00     0.043 C 
ATOM      2  C   UNL     1      13.201  -4.533  -0.726  1.00  0.00     0.084 C 
ATOM      3  C   UNL     1      11.732  -4.160  -1.031  1.00  0.00     0.169 C 
ATOM      4  C   UNL     1      11.650  -2.853  -1.858  1.00  0.00     0.175 C 
ATOM      5  C   UNL     1      12.859  -2.632  -2.789  1.00  0.00     0.169 C 
ATOM      6  C   UNL     1      13.499  -3.961  -3.233  1.00  0.00     0.084 C 
ENDROOT
BRANCH   2   7
ATOM      7  N   UNL     1      13.315  -5.721   0.140  1.00  0.00    -0.325 NA
ATOM      8  H   UNL     1      12.668  -6.440  -0.186  1.00  0.00     0.119 HD
ATOM      9  H   UNL     1      13.013  -5.486   1.086  1.00  0.00     0.119 HD
ENDBRANCH   2   7
BRANCH   6  10
ATOM     10  N   UNL     1      12.539  -4.789  -3.988  1.00  0.00    -0.325 NA
ATOM     11  H   UNL     1      12.936  -5.730  -4.048  1.00  0.00     0.119 HD
ATOM     12  H   UNL     1      11.687  -4.895  -3.436  1.00  0.00     0.119 HD
ENDBRANCH   6  10
BRANCH   3  13
ATOM     13  O   UNL     1      11.005  -3.943   0.199  1.00  0.00    -0.342 OA
BRANCH  13  14
ATOM     14  C   UNL     1      11.879  -3.574   1.273  1.00  0.00     0.282 C 
ATOM     15  C   UNL     1      11.362  -2.249   1.884  1.00  0.00     0.202 C 
ATOM     16  O   UNL     1      11.866  -4.601   2.263  1.00  0.00    -0.342 OA
ATOM     17  C   UNL     1      11.663  -2.182   3.387  1.00  0.00     0.179 C 
ATOM     18  C   UNL     1      12.877  -4.387   3.276  1.00  0.00     0.166 C 
ATOM     19  C   UNL     1      12.965  -2.909   3.716  1.00  0.00     0.176 C 
BRANCH  15  20
ATOM     20  O   UNL     1       9.935  -2.099   1.726  1.00  0.00    -0.385 OA
ATOM     21  H   UNL     1       9.625  -2.989   1.463  1.00  0.00     0.211 HD
ENDBRANCH  15  20
BRANCH  17  22
ATOM     22  O   UNL     1      11.777  -0.807   3.790  1.00  0.00    -0.387 OA
ATOM     23  H   UNL     1      11.515  -0.792   4.733  1.00  0.00     0.211 HD
ENDBRANCH  17  22
BRANCH  18  24
ATOM     24  C   UNL     1      12.512  -5.292   4.470  1.00  0.00     0.112 C 
BRANCH  24  25
ATOM     25  N   UNL     1      11.440  -6.241   4.136  1.00  0.00    -0.328 NA
ATOM     26  H   UNL     1      11.619  -7.127   4.608  1.00  0.00     0.118 HD
ATOM     27  H   UNL     1      11.538  -6.458   3.140  1.00  0.00     0.118 HD
ENDBRANCH  24  25
ENDBRANCH  18  24
BRANCH  19  28
ATOM     28  O   UNL     1      14.026  -2.258   2.994  1.00  0.00    -0.388 OA
ATOM     29  H   UNL     1      13.890  -1.301   3.155  1.00  0.00     0.211 HD
ENDBRANCH  19  28
ENDBRANCH  13  14
ENDBRANCH   3  13
BRANCH   5  30
ATOM     30  O   UNL     1      12.429  -1.914  -3.964  1.00  0.00    -0.343 OA
BRANCH  30  31
ATOM     31  C   UNL     1      12.036  -2.800  -5.025  1.00  0.00     0.270 C 
ATOM     32  C   UNL     1      12.962  -2.540  -6.266  1.00  0.00     0.139 C 
ATOM     33  O   UNL     1      10.634  -2.654  -5.281  1.00  0.00    -0.342 OA
ATOM     34  C   UNL     1      12.219  -2.951  -7.542  1.00  0.00     0.167 C 
ATOM     35  C   UNL     1      10.352  -1.695  -6.314  1.00  0.00     0.178 C 
ATOM     36  C   UNL     1      10.880  -2.189  -7.678  1.00  0.00     0.176 C 
BRANCH  32  37
ATOM     37  N   UNL     1      13.444  -1.142  -6.372  1.00  0.00    -0.321 NA
ATOM     38  H   UNL     1      14.228  -1.001  -5.736  1.00  0.00     0.119 HD
ATOM     39  H   UNL     1      12.688  -0.544  -6.027  1.00  0.00     0.119 HD
ENDBRANCH  32  37
BRANCH  34  40
ATOM     40  O   UNL     1      11.953  -4.371  -7.529  1.00  0.00    -0.388 OA
ATOM     41  H   UNL     1      12.302  -4.740  -8.362  1.00  0.00     0.211 HD
ENDBRANCH  34  40
BRANCH  35  42
ATOM     42  C   UNL     1       8.839  -1.454  -6.320  1.00  0.00     0.191 C 
BRANCH  42  43
ATOM     43  O   UNL     1       8.169  -2.643  -5.884  1.00  0.00    -0.394 OA
ATOM     44  H   UNL     1       8.038  -2.512  -4.925  1.00  0.00     0.210 HD
ENDBRANCH  42  43
ENDBRANCH  35  42
BRANCH  36  45
ATOM     45  O   UNL     1       9.936  -3.048  -8.338  1.00  0.00    -0.388 OA
ATOM     46  H   UNL     1       9.058  -2.731  -8.031  1.00  0.00     0.211 HD
ENDBRANCH  36  45
ENDBRANCH  30  31
ENDBRANCH   5  30
BRANCH   4  47
ATOM     47  O   UNL     1      11.547  -1.713  -0.980  1.00  0.00    -0.388 OA
ATOM     48  H   UNL     1      11.966  -0.981  -1.478  1.00  0.00     0.211 HD
ENDBRANCH   4  47
TORSDOF 17
ENDMDL
MODEL 5
REMARK VINA RESULT:    -2.149      2.328      8.568
REMARK INTER + INTRA:          -4.653
REMARK INTER:                  -5.778
REMARK INTRA:                   1.125
REMARK UNBOUND:                -1.059
REMARK SMILES NCC1OC(OC2C(N)CC(N)C(OC3OC(CO)C(O)C(O)C3N)C2O)C(O)C(O)C1O
REMARK SMILES IDX 10 1 8 2 7 3 26 4 13 5 11 6 9 7 12 10 6 13 5 14 28 15 4 16
REMARK SMILES IDX 30 17 3 18 32 19 29 20 31 22 2 24 1 25 33 28 14 30 15 31
REMARK SMILES IDX 24 32 16 33 22 34 17 35 20 36 25 37 23 40 18 42 19 43 21 45
REMARK SMILES IDX 27 47
REMARK H PARENT 9 8 9 9 12 11 12 12 29 21 31 23 1 26 1 27 33 29 25 38 25 39
REMARK H PARENT 23 41 19 44 21 46 27 48
ROOT
ATOM      1  C   UNL     1      13.094  -0.446  -2.051  1.00  0.00     0.043 C 
ATOM      2  C   UNL     1      12.511  -1.598  -1.203  1.00  0.00     0.084 C 
ATOM      3  C   UNL     1      12.433  -2.921  -1.998  1.00  0.00     0.169 C 
ATOM      4  C   UNL     1      11.542  -2.764  -3.254  1.00  0.00     0.175 C 
ATOM      5  C   UNL     1      11.557  -1.342  -3.850  1.00  0.00     0.169 C 
ATOM      6  C   UNL     1      12.882  -0.609  -3.566  1.00  0.00     0.084 C 
ENDROOT
BRANCH   2   7
ATOM      7  N   UNL     1      13.275  -1.735   0.051  1.00  0.00    -0.325 NA
ATOM      8  H   UNL     1      12.855  -2.467   0.625  1.00  0.00     0.119 HD
ATOM      9  H   UNL     1      13.195  -0.876   0.597  1.00  0.00     0.119 HD
ENDBRANCH   2   7
BRANCH   6  10
ATOM     10  N   UNL     1      14.025  -1.323  -4.165  1.00  0.00    -0.325 NA
ATOM     11  H   UNL     1      13.700  -2.265  -4.402  1.00  0.00     0.119 HD
ATOM     12  H   UNL     1      14.256  -0.889  -5.059  1.00  0.00     0.119 HD
ENDBRANCH   6  10
BRANCH   3  13
ATOM     13  O   UNL     1      11.852  -3.963  -1.180  1.00  0.00    -0.342 OA
BRANCH  13  14
ATOM     14  C   UNL     1      12.544  -4.103   0.068  1.00  0.00     0.282 C 
ATOM     15  C   UNL     1      11.551  -3.781   1.210  1.00  0.00     0.202 C 
ATOM     16  O   UNL     1      13.012  -5.445   0.197  1.00  0.00    -0.342 OA
ATOM     17  C   UNL     1      11.870  -4.604   2.465  1.00  0.00     0.179 C 
ATOM     18  C   UNL     1      13.889  -5.603   1.336  1.00  0.00     0.166 C 
ATOM     19  C   UNL     1      13.372  -4.856   2.585  1.00  0.00     0.176 C 
BRANCH  15  20
ATOM     20  O   UNL     1      10.186  -4.074   0.843  1.00  0.00    -0.385 OA
ATOM     21  H   UNL     1      10.256  -4.852   0.253  1.00  0.00     0.211 HD
ENDBRANCH  15  20
BRANCH  17  22
ATOM     22  O   UNL     1      11.418  -3.893   3.630  1.00  0.00    -0.387 OA
ATOM     23  H   UNL     1      10.719  -3.288   3.306  1.00  0.00     0.211 HD
ENDBRANCH  17  22
BRANCH  18  24
ATOM     24  C   UNL     1      13.997  -7.117   1.611  1.00  0.00     0.112 C 
BRANCH  24  25
ATOM     25  N   UNL     1      12.686  -7.721   1.894  1.00  0.00    -0.328 NA
ATOM     26  H   UNL     1      12.167  -7.109   2.523  1.00  0.00     0.118 HD
ATOM     27  H   UNL     1      12.863  -8.564   2.447  1.00  0.00     0.118 HD
ENDBRANCH  24  25
ENDBRANCH  18  24
BRANCH  19  28
ATOM     28  O   UNL     1      14.026  -3.577   2.682  1.00  0.00    -0.388 OA
ATOM     29  H   UNL     1      14.933  -3.732   2.343  1.00  0.00     0.211 HD
ENDBRANCH  19  28
ENDBRANCH  13  14
ENDBRANCH   3  13
BRANCH   5  30
ATOM     30  O   UNL     1      11.376  -1.424  -5.279  1.00  0.00    -0.343 OA
BRANCH  30  31
ATOM     31  C   UNL     1      11.904  -2.644  -5.822  1.00  0.00     0.270 C 
ATOM     32  C   UNL     1      12.649  -2.316  -7.165  1.00  0.00     0.139 C 
ATOM     33  O   UNL     1      10.856  -3.614  -5.939  1.00  0.00    -0.342 OA
ATOM     34  C   UNL     1      12.654  -3.564  -8.055  1.00  0.00     0.167 C 
ATOM     35  C   UNL     1      10.227  -3.603  -7.232  1.00  0.00     0.178 C 
ATOM     36  C   UNL     1      11.216  -4.062  -8.325  1.00  0.00     0.176 C 
BRANCH  32  37
ATOM     37  N   UNL     1      12.083  -1.157  -7.897  1.00  0.00    -0.321 NA
ATOM     38  H   UNL     1      12.297  -0.297  -7.395  1.00  0.00     0.119 HD
ATOM     39  H   UNL     1      11.064  -1.258  -7.864  1.00  0.00     0.119 HD
ENDBRANCH  32  37
BRANCH  34  40
ATOM     40  O   UNL     1      13.408  -4.622  -7.424  1.00  0.00    -0.388 OA
ATOM     41  H   UNL     1      13.304  -5.421  -7.975  1.00  0.00     0.211 HD
ENDBRANCH  34  40
BRANCH  35  42
ATOM     42  C   UNL     1       8.984  -4.495  -7.149  1.00  0.00     0.191 C 
BRANCH  42  43
ATOM     43  O   UNL     1       8.522  -4.787  -8.475  1.00  0.00    -0.394 OA
ATOM     44  H   UNL     1       7.603  -5.093  -8.352  1.00  0.00     0.210 HD
ENDBRANCH  42  43
ENDBRANCH  35  42
BRANCH  36  45
ATOM     45  O   UNL     1      11.248  -5.494  -8.449  1.00  0.00    -0.388 OA
ATOM     46  H   UNL     1      12.186  -5.702  -8.649  1.00  0.00     0.211 HD
ENDBRANCH  36  45
ENDBRANCH  30  31
ENDBRANCH   5  30
BRANCH   4  47
ATOM     47  O   UNL     1      10.175  -3.103  -2.942  1.00  0.00    -0.388 OA
ATOM     48  H   UNL     1      10.186  -4.074  -2.812  1.00  0.00     0.211 HD
ENDBRANCH   4  47
TORSDOF 17
ENDMDL
MODEL 6
REMARK VINA RESULT:    -1.772      2.343      8.838
REMARK INTER + INTRA:          -4.023
REMARK INTER:                  -4.332
REMARK INTRA:                   0.310
REMARK UNBOUND:                -1.059
REMARK SMILES NCC1OC(OC2C(N)CC(N)C(OC3OC(CO)C(O)C(O)C3N)C2O)C(O)C(O)C1O
REMARK SMILES IDX 10 1 8 2 7 3 26 4 13 5 11 6 9 7 12 10 6 13 5 14 28 15 4 16
REMARK SMILES IDX 30 17 3 18 32 19 29 20 31 22 2 24 1 25 33 28 14 30 15 31
REMARK SMILES IDX 24 32 16 33 22 34 17 35 20 36 25 37 23 40 18 42 19 43 21 45
REMARK SMILES IDX 27 47
REMARK H PARENT 9 8 9 9 12 11 12 12 29 21 31 23 1 26 1 27 33 29 25 38 25 39
REMARK H PARENT 23 41 19 44 21 46 27 48
ROOT
ATOM      1  C   UNL     1      10.452  -2.930  -0.797  1.00  0.00     0.043 C 
ATOM      2  C   UNL     1      11.424  -3.271   0.354  1.00  0.00     0.084 C 
ATOM      3  C   UNL     1      12.890  -2.943  -0.010  1.00  0.00     0.169 C 
ATOM      4  C   UNL     1      13.343  -3.735  -1.260  1.00  0.00     0.175 C 
ATOM      5  C   UNL     1      12.202  -4.031  -2.254  1.00  0.00     0.169 C 
ATOM      6  C   UNL     1      11.092  -2.965  -2.195  1.00  0.00     0.084 C 
ENDROOT
BRANCH   2   7
ATOM      7  N   UNL     1      10.986  -2.606   1.595  1.00  0.00    -0.325 NA
ATOM      8  H   UNL     1      10.422  -1.788   1.360  1.00  0.00     0.119 HD
ATOM      9  H   UNL     1      11.799  -2.245   2.096  1.00  0.00     0.119 HD
ENDBRANCH   2   7
BRANCH   6  10
ATOM     10  N   UNL     1      11.616  -1.631  -2.547  1.00  0.00    -0.325 NA
ATOM     11  H   UNL     1      11.104  -0.948  -1.981  1.00  0.00     0.119 HD
ATOM     12  H   UNL     1      12.585  -1.562  -2.235  1.00  0.00     0.119 HD
ENDBRANCH   6  10
BRANCH   3  13
ATOM     13  O   UNL     1      13.769  -3.308   1.079  1.00  0.00    -0.342 OA
BRANCH  13  14
ATOM     14  C   UNL     1      13.038  -3.564   2.285  1.00  0.00     0.282 C 
ATOM     15  C   UNL     1      12.835  -5.093   2.412  1.00  0.00     0.202 C 
ATOM     16  O   UNL     1      13.788  -3.081   3.399  1.00  0.00    -0.342 OA
ATOM     17  C   UNL     1      12.814  -5.525   3.885  1.00  0.00     0.179 C 
ATOM     18  C   UNL     1      13.022  -3.126   4.626  1.00  0.00     0.166 C 
ATOM     19  C   UNL     1      12.211  -4.433   4.765  1.00  0.00     0.176 C 
BRANCH  15  20
ATOM     20  O   UNL     1      13.888  -5.837   1.763  1.00  0.00    -0.385 OA
ATOM     21  H   UNL     1      13.460  -6.221   0.971  1.00  0.00     0.211 HD
ENDBRANCH  15  20
BRANCH  17  22
ATOM     22  O   UNL     1      12.032  -6.723   4.018  1.00  0.00    -0.387 OA
ATOM     23  H   UNL     1      12.462  -7.233   4.735  1.00  0.00     0.211 HD
ENDBRANCH  17  22
BRANCH  18  24
ATOM     24  C   UNL     1      14.026  -2.980   5.787  1.00  0.00     0.112 C 
BRANCH  24  25
ATOM     25  N   UNL     1      13.363  -2.618   7.048  1.00  0.00    -0.328 NA
ATOM     26  H   UNL     1      12.354  -2.606   6.901  1.00  0.00     0.118 HD
ATOM     27  H   UNL     1      13.605  -1.643   7.240  1.00  0.00     0.118 HD
ENDBRANCH  24  25
ENDBRANCH  18  24
BRANCH  19  28
ATOM     28  O   UNL     1      10.860  -4.207   4.322  1.00  0.00    -0.388 OA
ATOM     29  H   UNL     1      10.883  -4.362   3.354  1.00  0.00     0.211 HD
ENDBRANCH  19  28
ENDBRANCH  13  14
ENDBRANCH   3  13
BRANCH   5  30
ATOM     30  O   UNL     1      12.736  -4.064  -3.594  1.00  0.00    -0.343 OA
BRANCH  30  31
ATOM     31  C   UNL     1      11.752  -4.473  -4.558  1.00  0.00     0.270 C 
ATOM     32  C   UNL     1      12.318  -5.693  -5.368  1.00  0.00     0.139 C 
ATOM     33  O   UNL     1      11.364  -3.350  -5.357  1.00  0.00    -0.342 OA
ATOM     34  C   UNL     1      11.642  -5.740  -6.743  1.00  0.00     0.167 C 
ATOM     35  C   UNL     1      12.135  -3.231  -6.565  1.00  0.00     0.178 C 
ATOM     36  C   UNL     1      11.851  -4.416  -7.513  1.00  0.00     0.176 C 
BRANCH  32  37
ATOM     37  N   UNL     1      13.794  -5.683  -5.514  1.00  0.00    -0.321 NA
ATOM     38  H   UNL     1      14.219  -5.297  -4.672  1.00  0.00     0.119 HD
ATOM     39  H   UNL     1      14.010  -5.023  -6.268  1.00  0.00     0.119 HD
ENDBRANCH  32  37
BRANCH  34  40
ATOM     40  O   UNL     1      10.226  -5.979  -6.594  1.00  0.00    -0.388 OA
ATOM     41  H   UNL     1       9.940  -6.517  -7.355  1.00  0.00     0.211 HD
ENDBRANCH  34  40
BRANCH  35  42
ATOM     42  C   UNL     1      11.798  -1.877  -7.197  1.00  0.00     0.191 C 
BRANCH  42  43
ATOM     43  O   UNL     1      10.958  -1.133  -6.304  1.00  0.00    -0.394 OA
ATOM     44  H   UNL     1      11.259  -1.393  -5.413  1.00  0.00     0.210 HD
ENDBRANCH  42  43
ENDBRANCH  35  42
BRANCH  36  45
ATOM     45  O   UNL     1      10.694  -4.181  -8.332  1.00  0.00    -0.388 OA
ATOM     46  H   UNL     1      10.889  -3.339  -8.798  1.00  0.00     0.211 HD
ENDBRANCH  36  45
ENDBRANCH  30  31
ENDBRANCH   5  30
BRANCH   4  47
ATOM     47  O   UNL     1      13.932  -4.993  -0.868  1.00  0.00    -0.388 OA
ATOM     48  H   UNL     1      13.175  -5.612  -0.816  1.00  0.00     0.211 HD
ENDBRANCH   4  47
TORSDOF 17
ENDMDL
