REMARK SMILES NCC1OC(OC2C(N)CC(N)C(OC3OC(CO)C(O)C(O)C3N)C2O)C(O)C(O)C1O
REMARK SMILES IDX 10 1 8 2 7 3 26 4 13 5 11 6 9 7 12 10 6 13 5 14 28 15 4 16
REMARK SMILES IDX 30 17 3 18 32 19 29 20 31 22 2 24 1 25 33 28 14 30 15 31
REMARK SMILES IDX 24 32 16 33 22 34 17 35 20 36 25 37 23 40 18 42 19 43 21 45
REMARK SMILES IDX 27 47
REMARK H PARENT 9 8 9 9 12 11 12 12 29 21 31 23 1 26 1 27 33 29 25 38 25 39
REMARK H PARENT 23 41 19 44 21 46 27 48
ROOT
ATOM      1  C   UNL     1       0.078   1.824  -2.575  1.00  0.00     0.043 C 
ATOM      2  C   UNL     1      -0.821   0.568  -2.593  1.00  0.00     0.084 C 
ATOM      3  C   UNL     1      -1.209   0.113  -1.168  1.00  0.00     0.169 C 
ATOM      4  C   UNL     1       0.048  -0.219  -0.328  1.00  0.00     0.175 C 
ATOM      5  C   UNL     1       1.288   0.613  -0.713  1.00  0.00     0.169 C 
ATOM      6  C   UNL     1       0.906   1.989  -1.290  1.00  0.00     0.084 C 
ENDROOT
BRANCH   2   7
ATOM      7  N   UNL     1      -1.996   0.803  -3.452  1.00  0.00    -0.325 NA
ATOM      8  H   UNL     1      -1.684   1.047  -4.393  1.00  0.00     0.119 HD
ATOM      9  H   UNL     1      -2.512   1.616  -3.113  1.00  0.00     0.119 HD
ENDBRANCH   2   7
BRANCH   6  10
ATOM     10  N   UNL     1       0.157   2.791  -0.303  1.00  0.00    -0.325 NA
ATOM     11  H   UNL     1       0.709   2.798   0.559  1.00  0.00     0.119 HD
ATOM     12  H   UNL     1       0.136   3.763  -0.613  1.00  0.00     0.119 HD
ENDBRANCH   6  10
BRANCH   3  13
ATOM     13  O   UNL     1      -2.021  -1.082  -1.228  1.00  0.00    -0.342 OA
BRANCH  13  14
ATOM     14  C   UNL     1      -3.370  -0.826  -0.818  1.00  0.00     0.282 C 
ATOM     15  C   UNL     1      -4.232  -2.054  -1.198  1.00  0.00     0.202 C 
ATOM     16  O   UNL     1      -3.402  -0.631   0.595  1.00  0.00    -0.342 OA
ATOM     17  C   UNL     1      -5.375  -2.256  -0.194  1.00  0.00     0.179 C 
ATOM     18  C   UNL     1      -4.697  -0.171   1.047  1.00  0.00     0.166 C 
ATOM     19  C   UNL     1      -5.860  -0.917   0.357  1.00  0.00     0.176 C 
BRANCH  15  20
ATOM     20  O   UNL     1      -3.461  -3.274  -1.219  1.00  0.00    -0.385 OA
ATOM     21  H   UNL     1      -2.585  -3.001  -1.560  1.00  0.00     0.211 HD
ENDBRANCH  15  20
BRANCH  17  22
ATOM     22  O   UNL     1      -6.470  -2.921  -0.846  1.00  0.00    -0.387 OA
ATOM     23  H   UNL     1      -6.097  -3.762  -1.182  1.00  0.00     0.211 HD
ENDBRANCH  17  22
BRANCH  18  24
ATOM     24  C   UNL     1      -4.740  -0.385   2.574  1.00  0.00     0.112 C 
BRANCH  24  25
ATOM     25  N   UNL     1      -3.611   0.267   3.254  1.00  0.00    -0.328 NA
ATOM     26  H   UNL     1      -3.640   1.268   3.062  1.00  0.00     0.118 HD
ATOM     27  H   UNL     1      -2.759  -0.058   2.789  1.00  0.00     0.118 HD
ENDBRANCH  24  25
ENDBRANCH  18  24
BRANCH  19  28
ATOM     28  O   UNL     1      -6.340  -0.133  -0.751  1.00  0.00    -0.388 OA
ATOM     29  H   UNL     1      -6.991  -0.709  -1.204  1.00  0.00     0.211 HD
ENDBRANCH  19  28
ENDBRANCH  13  14
ENDBRANCH   3  13
BRANCH   5  30
ATOM     30  O   UNL     1       2.106   0.817   0.458  1.00  0.00    -0.343 OA
BRANCH  30  31
ATOM     31  C   UNL     1       3.160  -0.154   0.557  1.00  0.00     0.270 C 
ATOM     32  C   UNL     1       3.574  -0.295   2.065  1.00  0.00     0.139 C 
ATOM     33  O   UNL     1       4.229   0.202  -0.328  1.00  0.00    -0.342 OA
ATOM     34  C   UNL     1       5.026  -0.780   2.144  1.00  0.00     0.167 C 
ATOM     35  C   UNL     1       5.241   0.999   0.311  1.00  0.00     0.178 C 
ATOM     36  C   UNL     1       5.977   0.181   1.394  1.00  0.00     0.176 C 
BRANCH  32  37
ATOM     37  N   UNL     1       3.397   0.948   2.854  1.00  0.00    -0.321 NA
ATOM     38  H   UNL     1       3.192   0.712   3.824  1.00  0.00     0.119 HD
ATOM     39  H   UNL     1       2.557   1.409   2.491  1.00  0.00     0.119 HD
ENDBRANCH  32  37
BRANCH  34  40
ATOM     40  O   UNL     1       5.142  -2.100   1.570  1.00  0.00    -0.388 OA
ATOM     41  H   UNL     1       4.697  -2.721   2.177  1.00  0.00     0.211 HD
ENDBRANCH  34  40
BRANCH  35  42
ATOM     42  C   UNL     1       6.184   1.512  -0.782  1.00  0.00     0.191 C 
BRANCH  42  43
ATOM     43  O   UNL     1       5.442   2.316  -1.708  1.00  0.00    -0.394 OA
ATOM     44  H   UNL     1       4.687   1.755  -1.969  1.00  0.00     0.210 HD
ENDBRANCH  42  43
ENDBRANCH  35  42
BRANCH  36  45
ATOM     45  O   UNL     1       7.056  -0.590   0.841  1.00  0.00    -0.388 OA
ATOM     46  H   UNL     1       6.665  -1.474   0.670  1.00  0.00     0.211 HD
ENDBRANCH  36  45
ENDBRANCH  30  31
ENDBRANCH   5  30
BRANCH   4  47
ATOM     47  O   UNL     1       0.386  -1.615  -0.465  1.00  0.00    -0.388 OA
ATOM     48  H   UNL     1      -0.478  -2.073  -0.514  1.00  0.00     0.211 HD
ENDBRANCH   4  47
TORSDOF 17
