MODEL 1
REMARK VINA RESULT:    -5.478      0.000      0.000
REMARK INTER + INTRA:          -7.297
REMARK INTER:                  -6.919
REMARK INTRA:                  -0.378
REMARK UNBOUND:                -0.378
REMARK SMILES CC1(C)SC2C(NC(=O)Cc3ccccc3)C(=O)N2C1C(=O)O
REMARK SMILES IDX 1 1 2 2 20 3 19 4 5 5 4 6 6 7 17 8 18 9 3 10 21 11 22 12
REMARK SMILES IDX 23 13 7 15 8 16 9 17 10 19 11 20 12 21 16 22 13 23 15 24
REMARK SMILES IDX 14 25
REMARK H PARENT 23 14 7 18
ROOT
ATOM      1  C   UNL     1      13.953  -4.136   4.036  1.00  0.00     0.026 C 
ATOM      2  C   UNL     1      12.921  -3.855   2.934  1.00  0.00     0.044 C 
ATOM      3  C   UNL     1      12.521  -2.367   2.897  1.00  0.00     0.211 C 
ATOM      4  N   UNL     1      12.202  -2.008   1.517  1.00  0.00    -0.311 N 
ATOM      5  C   UNL     1      13.074  -2.628   0.497  1.00  0.00     0.176 C 
ATOM      6  S   UNL     1      13.761  -4.149   1.295  1.00  0.00    -0.125 SA
ATOM      7  C   UNL     1      11.812  -2.875  -0.369  1.00  0.00     0.205 C 
ATOM      8  C   UNL     1      11.053  -2.454   0.913  1.00  0.00     0.250 C 
ATOM      9  O   UNL     1       9.917  -2.533   1.316  1.00  0.00    -0.272 OA
ATOM     10  C   UNL     1      11.760  -4.850   3.052  1.00  0.00     0.026 C 
ENDROOT
BRANCH   3  11
ATOM     11  C   UNL     1      11.517  -1.914   3.958  1.00  0.00     0.327 C 
ATOM     12  O   UNL     1      11.457  -2.321   5.109  1.00  0.00    -0.250 OA
BRANCH  11  13
ATOM     13  O   UNL     1      10.737  -0.884   3.571  1.00  0.00    -0.480 OA
ATOM     14  H   UNL     1      10.837  -0.211   4.275  1.00  0.00     0.296 HD
ENDBRANCH  11  13
ENDBRANCH   3  11
BRANCH   7  15
ATOM     15  N   UNL     1      11.599  -1.971  -1.536  1.00  0.00    -0.341 N 
ATOM     16  C   UNL     1      11.643  -2.440  -2.829  1.00  0.00     0.225 C 
ATOM     17  O   UNL     1      11.982  -3.592  -3.092  1.00  0.00    -0.275 OA
ATOM     18  H   UNL     1      11.195  -1.053  -1.375  1.00  0.00     0.164 HD
BRANCH  16  19
ATOM     19  C   UNL     1      11.329  -1.424  -3.913  1.00  0.00     0.135 C 
BRANCH  19  20
ATOM     20  C   UNL     1      10.330  -1.901  -4.941  1.00  0.00    -0.039 A 
ATOM     21  C   UNL     1       8.962  -1.939  -4.633  1.00  0.00     0.004 A 
ATOM     22  C   UNL     1      10.751  -2.300  -6.217  1.00  0.00     0.004 A 
ATOM     23  C   UNL     1       8.034  -2.363  -5.584  1.00  0.00     0.000 A 
ATOM     24  C   UNL     1       9.820  -2.724  -7.166  1.00  0.00     0.000 A 
ATOM     25  C   UNL     1       8.463  -2.756  -6.850  1.00  0.00     0.000 A 
ENDBRANCH  19  20
ENDBRANCH  16  19
ENDBRANCH   7  15
TORSDOF 5
ENDMDL
MODEL 2
REMARK VINA RESULT:    -5.242      3.258      8.492
REMARK INTER + INTRA:          -6.998
REMARK INTER:                  -6.715
REMARK INTRA:                  -0.283
REMARK UNBOUND:                -0.378
REMARK SMILES CC1(C)SC2C(NC(=O)Cc3ccccc3)C(=O)N2C1C(=O)O
REMARK SMILES IDX 1 1 2 2 20 3 19 4 5 5 4 6 6 7 17 8 18 9 3 10 21 11 22 12
REMARK SMILES IDX 23 13 7 15 8 16 9 17 10 19 11 20 12 21 16 22 13 23 15 24
REMARK SMILES IDX 14 25
REMARK H PARENT 23 14 7 18
ROOT
ATOM      1  C   UNL     1      10.428  -1.448  -8.408  1.00  0.00     0.026 C 
ATOM      2  C   UNL     1      10.182  -1.792  -6.932  1.00  0.00     0.044 C 
ATOM      3  C   UNL     1      10.534  -3.261  -6.625  1.00  0.00     0.211 C 
ATOM      4  N   UNL     1      11.005  -3.345  -5.244  1.00  0.00    -0.311 N 
ATOM      5  C   UNL     1      11.846  -2.211  -4.806  1.00  0.00     0.176 C 
ATOM      6  S   UNL     1      11.395  -0.804  -5.918  1.00  0.00    -0.125 SA
ATOM      7  C   UNL     1      11.087  -2.227  -3.455  1.00  0.00     0.205 C 
ATOM      8  C   UNL     1      10.140  -3.209  -4.188  1.00  0.00     0.250 C 
ATOM      9  O   UNL     1       9.033  -3.654  -3.998  1.00  0.00    -0.272 OA
ATOM     10  C   UNL     1       8.767  -1.354  -6.531  1.00  0.00     0.026 C 
ENDROOT
BRANCH   3  11
ATOM     11  C   UNL     1       9.497  -4.304  -7.046  1.00  0.00     0.327 C 
ATOM     12  O   UNL     1       8.789  -4.250  -8.040  1.00  0.00    -0.250 OA
BRANCH  11  13
ATOM     13  O   UNL     1       9.499  -5.417  -6.284  1.00  0.00    -0.480 OA
ATOM     14  H   UNL     1       8.666  -5.880  -6.509  1.00  0.00     0.296 HD
ENDBRANCH  11  13
ENDBRANCH   3  11
BRANCH   7  15
ATOM     15  N   UNL     1      11.794  -2.815  -2.281  1.00  0.00    -0.341 N 
ATOM     16  C   UNL     1      12.589  -2.049  -1.460  1.00  0.00     0.225 C 
ATOM     17  O   UNL     1      12.855  -0.877  -1.720  1.00  0.00    -0.275 OA
ATOM     18  H   UNL     1      11.512  -3.734  -1.951  1.00  0.00     0.164 HD
BRANCH  16  19
ATOM     19  C   UNL     1      13.183  -2.763  -0.259  1.00  0.00     0.135 C 
BRANCH  19  20
ATOM     20  C   UNL     1      12.754  -2.199   1.075  1.00  0.00    -0.039 A 
ATOM     21  C   UNL     1      11.511  -2.548   1.623  1.00  0.00     0.004 A 
ATOM     22  C   UNL     1      13.592  -1.330   1.788  1.00  0.00     0.004 A 
ATOM     23  C   UNL     1      11.117  -2.043   2.862  1.00  0.00     0.000 A 
ATOM     24  C   UNL     1      13.194  -0.827   3.027  1.00  0.00     0.000 A 
ATOM     25  C   UNL     1      11.957  -1.182   3.564  1.00  0.00     0.000 A 
ENDBRANCH  19  20
ENDBRANCH  16  19
ENDBRANCH   7  15
TORSDOF 5
ENDMDL
MODEL 3
REMARK VINA RESULT:    -4.851     19.081     20.939
REMARK INTER + INTRA:          -6.505
REMARK INTER:                  -6.214
REMARK INTRA:                  -0.291
REMARK UNBOUND:                -0.378
REMARK SMILES CC1(C)SC2C(NC(=O)Cc3ccccc3)C(=O)N2C1C(=O)O
REMARK SMILES IDX 1 1 2 2 20 3 19 4 5 5 4 6 6 7 17 8 18 9 3 10 21 11 22 12
REMARK SMILES IDX 23 13 7 15 8 16 9 17 10 19 11 20 12 21 16 22 13 23 15 24
REMARK SMILES IDX 14 25
REMARK H PARENT 23 14 7 18
ROOT
ATOM      1  C   UNL     1      -6.978   8.921  -0.966  1.00  0.00     0.026 C 
ATOM      2  C   UNL     1      -6.313  10.050  -1.767  1.00  0.00     0.044 C 
ATOM      3  C   UNL     1      -5.659  11.094  -0.840  1.00  0.00     0.211 C 
ATOM      4  N   UNL     1      -4.494  11.652  -1.522  1.00  0.00    -0.311 N 
ATOM      5  C   UNL     1      -3.710  10.677  -2.309  1.00  0.00     0.176 C 
ATOM      6  S   UNL     1      -4.885   9.305  -2.705  1.00  0.00    -0.125 SA
ATOM      7  C   UNL     1      -3.580  11.748  -3.423  1.00  0.00     0.205 C 
ATOM      8  C   UNL     1      -4.634  12.509  -2.584  1.00  0.00     0.250 C 
ATOM      9  O   UNL     1      -5.379  13.445  -2.764  1.00  0.00    -0.272 OA
ATOM     10  C   UNL     1      -7.309  10.608  -2.792  1.00  0.00     0.026 C 
ENDROOT
BRANCH   3  11
ATOM     11  C   UNL     1      -6.606  12.104  -0.190  1.00  0.00     0.327 C 
ATOM     12  O   UNL     1      -7.735  11.871   0.216  1.00  0.00    -0.250 OA
BRANCH  11  13
ATOM     13  O   UNL     1      -6.047  13.309   0.042  1.00  0.00    -0.480 OA
ATOM     14  H   UNL     1      -5.164  13.112   0.414  1.00  0.00     0.296 HD
ENDBRANCH  11  13
ENDBRANCH   3  11
BRANCH   7  15
ATOM     15  N   UNL     1      -2.269  12.448  -3.546  1.00  0.00    -0.341 N 
ATOM     16  C   UNL     1      -1.457  12.270  -4.644  1.00  0.00     0.225 C 
ATOM     17  O   UNL     1      -1.710  11.439  -5.512  1.00  0.00    -0.275 OA
ATOM     18  H   UNL     1      -2.074  13.231  -2.930  1.00  0.00     0.164 HD
BRANCH  16  19
ATOM     19  C   UNL     1      -0.190  13.107  -4.671  1.00  0.00     0.135 C 
BRANCH  19  20
ATOM     20  C   UNL     1       1.029  12.408  -4.117  1.00  0.00    -0.039 A 
ATOM     21  C   UNL     1       2.311  12.763  -4.563  1.00  0.00     0.004 A 
ATOM     22  C   UNL     1       0.900  11.406  -3.145  1.00  0.00     0.004 A 
ATOM     23  C   UNL     1       3.441  12.132  -4.043  1.00  0.00     0.000 A 
ATOM     24  C   UNL     1       2.033  10.777  -2.627  1.00  0.00     0.000 A 
ATOM     25  C   UNL     1       3.302  11.139  -3.076  1.00  0.00     0.000 A 
ENDBRANCH  19  20
ENDBRANCH  16  19
ENDBRANCH   7  15
TORSDOF 5
ENDMDL
MODEL 4
REMARK VINA RESULT:    -4.667      2.253      2.703
REMARK INTER + INTRA:          -6.272
REMARK INTER:                  -5.900
REMARK INTRA:                  -0.373
REMARK UNBOUND:                -0.378
REMARK SMILES CC1(C)SC2C(NC(=O)Cc3ccccc3)C(=O)N2C1C(=O)O
REMARK SMILES IDX 1 1 2 2 20 3 19 4 5 5 4 6 6 7 17 8 18 9 3 10 21 11 22 12
REMARK SMILES IDX 23 13 7 15 8 16 9 17 10 19 11 20 12 21 16 22 13 23 15 24
REMARK SMILES IDX 14 25
REMARK H PARENT 23 14 7 18
ROOT
ATOM      1  C   UNL     1      12.527  -3.610   4.649  1.00  0.00     0.026 C 
ATOM      2  C   UNL     1      12.607  -3.637   3.116  1.00  0.00     0.044 C 
ATOM      3  C   UNL     1      11.447  -4.445   2.501  1.00  0.00     0.211 C 
ATOM      4  N   UNL     1      11.116  -3.865   1.202  1.00  0.00    -0.311 N 
ATOM      5  C   UNL     1      11.181  -2.389   1.147  1.00  0.00     0.176 C 
ATOM      6  S   UNL     1      12.327  -1.895   2.512  1.00  0.00    -0.125 SA
ATOM      7  C   UNL     1      11.858  -2.514  -0.242  1.00  0.00     0.205 C 
ATOM      8  C   UNL     1      11.950  -4.016   0.123  1.00  0.00     0.250 C 
ATOM      9  O   UNL     1      12.559  -4.976  -0.289  1.00  0.00    -0.272 OA
ATOM     10  C   UNL     1      14.014  -4.065   2.682  1.00  0.00     0.026 C 
ENDROOT
BRANCH   3  11
ATOM     11  C   UNL     1      11.593  -5.967   2.541  1.00  0.00     0.327 C 
ATOM     12  O   UNL     1      12.226  -6.606   3.367  1.00  0.00    -0.250 OA
BRANCH  11  13
ATOM     13  O   UNL     1      10.832  -6.614   1.634  1.00  0.00    -0.480 OA
ATOM     14  H   UNL     1      10.401  -5.907   1.113  1.00  0.00     0.296 HD
ENDBRANCH  11  13
ENDBRANCH   3  11
BRANCH   7  15
ATOM     15  N   UNL     1      11.017  -2.222  -1.439  1.00  0.00    -0.341 N 
ATOM     16  C   UNL     1      11.561  -1.703  -2.593  1.00  0.00     0.225 C 
ATOM     17  O   UNL     1      12.734  -1.341  -2.653  1.00  0.00    -0.275 OA
ATOM     18  H   UNL     1      10.082  -2.616  -1.487  1.00  0.00     0.164 HD
BRANCH  16  19
ATOM     19  C   UNL     1      10.601  -1.531  -3.757  1.00  0.00     0.135 C 
BRANCH  19  20
ATOM     20  C   UNL     1      10.361  -2.791  -4.556  1.00  0.00    -0.039 A 
ATOM     21  C   UNL     1       9.321  -2.843  -5.496  1.00  0.00     0.004 A 
ATOM     22  C   UNL     1      11.176  -3.917  -4.380  1.00  0.00     0.004 A 
ATOM     23  C   UNL     1       9.106  -3.997  -6.249  1.00  0.00     0.000 A 
ATOM     24  C   UNL     1      10.957  -5.070  -5.134  1.00  0.00     0.000 A 
ATOM     25  C   UNL     1       9.923  -5.110  -6.068  1.00  0.00     0.000 A 
ENDBRANCH  19  20
ENDBRANCH  16  19
ENDBRANCH   7  15
TORSDOF 5
ENDMDL
MODEL 5
REMARK VINA RESULT:    -3.913     19.773     21.932
REMARK INTER + INTRA:          -5.320
REMARK INTER:                  -5.052
REMARK INTRA:                  -0.269
REMARK UNBOUND:                -0.378
REMARK SMILES CC1(C)SC2C(NC(=O)Cc3ccccc3)C(=O)N2C1C(=O)O
REMARK SMILES IDX 1 1 2 2 20 3 19 4 5 5 4 6 6 7 17 8 18 9 3 10 21 11 22 12
REMARK SMILES IDX 23 13 7 15 8 16 9 17 10 19 11 20 12 21 16 22 13 23 15 24
REMARK SMILES IDX 14 25
REMARK H PARENT 23 14 7 18
ROOT
ATOM      1  C   UNL     1      -0.654  13.839  -6.356  1.00  0.00     0.026 C 
ATOM      2  C   UNL     1      -1.432  12.914  -5.409  1.00  0.00     0.044 C 
ATOM      3  C   UNL     1      -0.781  12.854  -4.013  1.00  0.00     0.211 C 
ATOM      4  N   UNL     1      -1.833  12.646  -3.020  1.00  0.00    -0.311 N 
ATOM      5  C   UNL     1      -3.090  13.376  -3.286  1.00  0.00     0.176 C 
ATOM      6  S   UNL     1      -3.098  13.695  -5.108  1.00  0.00    -0.125 SA
ATOM      7  C   UNL     1      -3.868  12.106  -2.856  1.00  0.00     0.205 C 
ATOM      8  C   UNL     1      -2.472  11.438  -2.903  1.00  0.00     0.250 C 
ATOM      9  O   UNL     1      -2.051  10.305  -2.918  1.00  0.00    -0.272 OA
ATOM     10  C   UNL     1      -1.665  11.559  -6.089  1.00  0.00     0.026 C 
ENDROOT
BRANCH   3  11
ATOM     11  C   UNL     1       0.452  11.957  -3.884  1.00  0.00     0.327 C 
ATOM     12  O   UNL     1       1.270  11.732  -4.762  1.00  0.00    -0.250 OA
BRANCH  11  13
ATOM     13  O   UNL     1       0.671  11.504  -2.632  1.00  0.00    -0.480 OA
ATOM     14  H   UNL     1      -0.215  11.278  -2.285  1.00  0.00     0.296 HD
ENDBRANCH  11  13
ENDBRANCH   3  11
BRANCH   7  15
ATOM     15  N   UNL     1      -4.499  12.118  -1.505  1.00  0.00    -0.341 N 
ATOM     16  C   UNL     1      -5.826  12.441  -1.332  1.00  0.00     0.225 C 
ATOM     17  O   UNL     1      -6.522  12.853  -2.257  1.00  0.00    -0.275 OA
ATOM     18  H   UNL     1      -4.013  11.668  -0.735  1.00  0.00     0.164 HD
BRANCH  16  19
ATOM     19  C   UNL     1      -6.353  12.334   0.088  1.00  0.00     0.135 C 
BRANCH  19  20
ATOM     20  C   UNL     1      -6.974  10.998   0.422  1.00  0.00    -0.039 A 
ATOM     21  C   UNL     1      -7.252  10.074  -0.597  1.00  0.00     0.004 A 
ATOM     22  C   UNL     1      -7.269  10.656   1.749  1.00  0.00     0.004 A 
ATOM     23  C   UNL     1      -7.810   8.832  -0.292  1.00  0.00     0.000 A 
ATOM     24  C   UNL     1      -7.828   9.413   2.049  1.00  0.00     0.000 A 
ATOM     25  C   UNL     1      -8.098   8.502   1.029  1.00  0.00     0.000 A 
ENDBRANCH  19  20
ENDBRANCH  16  19
ENDBRANCH   7  15
TORSDOF 5
ENDMDL
MODEL 6
REMARK VINA RESULT:    -3.788      1.990      2.638
REMARK INTER + INTRA:          -5.162
REMARK INTER:                  -4.927
REMARK INTRA:                  -0.236
REMARK UNBOUND:                -0.378
REMARK SMILES CC1(C)SC2C(NC(=O)Cc3ccccc3)C(=O)N2C1C(=O)O
REMARK SMILES IDX 1 1 2 2 20 3 19 4 5 5 4 6 6 7 17 8 18 9 3 10 21 11 22 12
REMARK SMILES IDX 23 13 7 15 8 16 9 17 10 19 11 20 12 21 16 22 13 23 15 24
REMARK SMILES IDX 14 25
REMARK H PARENT 23 14 7 18
ROOT
ATOM      1  C   UNL     1      12.312  -2.067   3.392  1.00  0.00     0.026 C 
ATOM      2  C   UNL     1      12.643  -2.856   2.118  1.00  0.00     0.044 C 
ATOM      3  C   UNL     1      11.496  -3.808   1.725  1.00  0.00     0.211 C 
ATOM      4  N   UNL     1      11.479  -3.936   0.269  1.00  0.00    -0.311 N 
ATOM      5  C   UNL     1      11.772  -2.688  -0.466  1.00  0.00     0.176 C 
ATOM      6  S   UNL     1      12.733  -1.635   0.712  1.00  0.00    -0.125 SA
ATOM      7  C   UNL     1      12.646  -3.519  -1.440  1.00  0.00     0.205 C 
ATOM      8  C   UNL     1      12.450  -4.643  -0.393  1.00  0.00     0.250 C 
ATOM      9  O   UNL     1      12.970  -5.708  -0.152  1.00  0.00    -0.272 OA
ATOM     10  C   UNL     1      14.024  -3.509   2.262  1.00  0.00     0.026 C 
ENDROOT
BRANCH   3  11
ATOM     11  C   UNL     1      11.405  -5.113   2.517  1.00  0.00     0.327 C 
ATOM     12  O   UNL     1      11.673  -5.256   3.700  1.00  0.00    -0.250 OA
BRANCH  11  13
ATOM     13  O   UNL     1      10.854  -6.135   1.828  1.00  0.00    -0.480 OA
ATOM     14  H   UNL     1       9.983  -6.284   2.247  1.00  0.00     0.296 HD
ENDBRANCH  11  13
ENDBRANCH   3  11
BRANCH   7  15
ATOM     15  N   UNL     1      12.072  -3.822  -2.783  1.00  0.00    -0.341 N 
ATOM     16  C   UNL     1      12.780  -3.587  -3.940  1.00  0.00     0.225 C 
ATOM     17  O   UNL     1      13.862  -3.004  -3.933  1.00  0.00    -0.275 OA
ATOM     18  H   UNL     1      11.248  -4.414  -2.839  1.00  0.00     0.164 HD
BRANCH  16  19
ATOM     19  C   UNL     1      12.103  -4.017  -5.229  1.00  0.00     0.135 C 
BRANCH  19  20
ATOM     20  C   UNL     1      10.828  -3.269  -5.541  1.00  0.00    -0.039 A 
ATOM     21  C   UNL     1      10.579  -2.022  -4.949  1.00  0.00     0.004 A 
ATOM     22  C   UNL     1       9.885  -3.801  -6.430  1.00  0.00     0.004 A 
ATOM     23  C   UNL     1       9.411  -1.319  -5.246  1.00  0.00     0.000 A 
ATOM     24  C   UNL     1       8.717  -3.096  -6.724  1.00  0.00     0.000 A 
ATOM     25  C   UNL     1       8.480  -1.856  -6.133  1.00  0.00     0.000 A 
ENDBRANCH  19  20
ENDBRANCH  16  19
ENDBRANCH   7  15
TORSDOF 5
ENDMDL
MODEL 7
REMARK VINA RESULT:    -3.697      4.597      9.579
REMARK INTER + INTRA:          -5.047
REMARK INTER:                  -5.554
REMARK INTRA:                   0.506
REMARK UNBOUND:                -0.378
REMARK SMILES CC1(C)SC2C(NC(=O)Cc3ccccc3)C(=O)N2C1C(=O)O
REMARK SMILES IDX 1 1 2 2 20 3 19 4 5 5 4 6 6 7 17 8 18 9 3 10 21 11 22 12
REMARK SMILES IDX 23 13 7 15 8 16 9 17 10 19 11 20 12 21 16 22 13 23 15 24
REMARK SMILES IDX 14 25
REMARK H PARENT 23 14 7 18
ROOT
ATOM      1  C   UNL     1      11.792  -2.465   0.864  1.00  0.00     0.026 C 
ATOM      2  C   UNL     1      12.380  -3.222   2.063  1.00  0.00     0.044 C 
ATOM      3  C   UNL     1      11.449  -3.156   3.289  1.00  0.00     0.211 C 
ATOM      4  N   UNL     1      11.609  -4.387   4.060  1.00  0.00    -0.311 N 
ATOM      5  C   UNL     1      11.776  -5.609   3.247  1.00  0.00     0.176 C 
ATOM      6  S   UNL     1      12.425  -5.031   1.615  1.00  0.00    -0.125 SA
ATOM      7  C   UNL     1      12.872  -6.069   4.243  1.00  0.00     0.205 C 
ATOM      8  C   UNL     1      12.746  -4.626   4.789  1.00  0.00     0.250 C 
ATOM      9  O   UNL     1      13.400  -3.908   5.510  1.00  0.00    -0.272 OA
ATOM     10  C   UNL     1      13.824  -2.762   2.304  1.00  0.00     0.026 C 
ENDROOT
BRANCH   3  11
ATOM     11  C   UNL     1      11.482  -1.852   4.089  1.00  0.00     0.327 C 
ATOM     12  O   UNL     1      11.494  -0.724   3.622  1.00  0.00    -0.250 OA
BRANCH  11  13
ATOM     13  O   UNL     1      11.358  -2.023   5.422  1.00  0.00    -0.480 OA
ATOM     14  H   UNL     1      12.188  -2.462   5.699  1.00  0.00     0.296 HD
ENDBRANCH  11  13
ENDBRANCH   3  11
BRANCH   7  15
ATOM     15  N   UNL     1      12.501  -7.132   5.222  1.00  0.00    -0.341 N 
ATOM     16  C   UNL     1      13.085  -7.201   6.467  1.00  0.00     0.225 C 
ATOM     17  O   UNL     1      14.023  -6.474   6.787  1.00  0.00    -0.275 OA
ATOM     18  H   UNL     1      11.655  -7.670   5.061  1.00  0.00     0.164 HD
BRANCH  16  19
ATOM     19  C   UNL     1      12.554  -8.286   7.387  1.00  0.00     0.135 C 
BRANCH  19  20
ATOM     20  C   UNL     1      11.278  -7.919   8.109  1.00  0.00    -0.039 A 
ATOM     21  C   UNL     1      11.319  -7.508   9.450  1.00  0.00     0.004 A 
ATOM     22  C   UNL     1      10.042  -7.971   7.451  1.00  0.00     0.004 A 
ATOM     23  C   UNL     1      10.146  -7.153  10.116  1.00  0.00     0.000 A 
ATOM     24  C   UNL     1       8.871  -7.614   8.121  1.00  0.00     0.000 A 
ATOM     25  C   UNL     1       8.923  -7.206   9.453  1.00  0.00     0.000 A 
ENDBRANCH  19  20
ENDBRANCH  16  19
ENDBRANCH   7  15
TORSDOF 5
ENDMDL
MODEL 8
REMARK VINA RESULT:    -3.423      3.487      8.533
REMARK INTER + INTRA:          -4.701
REMARK INTER:                  -5.073
REMARK INTRA:                   0.371
REMARK UNBOUND:                -0.378
REMARK SMILES CC1(C)SC2C(NC(=O)Cc3ccccc3)C(=O)N2C1C(=O)O
REMARK SMILES IDX 1 1 2 2 20 3 19 4 5 5 4 6 6 7 17 8 18 9 3 10 21 11 22 12
REMARK SMILES IDX 23 13 7 15 8 16 9 17 10 19 11 20 12 21 16 22 13 23 15 24
REMARK SMILES IDX 14 25
REMARK H PARENT 23 14 7 18
ROOT
ATOM      1  C   UNL     1      11.385  -1.211  -8.472  1.00  0.00     0.026 C 
ATOM      2  C   UNL     1      11.113  -1.766  -7.067  1.00  0.00     0.044 C 
ATOM      3  C   UNL     1      10.934  -3.297  -7.086  1.00  0.00     0.211 C 
ATOM      4  N   UNL     1      11.418  -3.836  -5.817  1.00  0.00    -0.311 N 
ATOM      5  C   UNL     1      12.630  -3.177  -5.286  1.00  0.00     0.176 C 
ATOM      6  S   UNL     1      12.651  -1.493  -6.050  1.00  0.00    -0.125 SA
ATOM      7  C   UNL     1      11.989  -3.231  -3.876  1.00  0.00     0.205 C 
ATOM      8  C   UNL     1      10.716  -3.650  -4.653  1.00  0.00     0.250 C 
ATOM      9  O   UNL     1       9.535  -3.725  -4.410  1.00  0.00    -0.272 OA
ATOM     10  C   UNL     1       9.972  -0.975  -6.415  1.00  0.00     0.026 C 
ENDROOT
BRANCH   3  11
ATOM     11  C   UNL     1       9.572  -3.809  -7.559  1.00  0.00     0.327 C 
ATOM     12  O   UNL     1       9.137  -4.940  -7.402  1.00  0.00    -0.250 OA
BRANCH  11  13
ATOM     13  O   UNL     1       8.776  -2.851  -8.076  1.00  0.00    -0.480 OA
ATOM     14  H   UNL     1       7.893  -3.018  -7.688  1.00  0.00     0.296 HD
ENDBRANCH  11  13
ENDBRANCH   3  11
BRANCH   7  15
ATOM     15  N   UNL     1      12.502  -4.266  -2.932  1.00  0.00    -0.341 N 
ATOM     16  C   UNL     1      13.329  -3.938  -1.882  1.00  0.00     0.225 C 
ATOM     17  O   UNL     1      13.785  -2.805  -1.743  1.00  0.00    -0.275 OA
ATOM     18  H   UNL     1      12.061  -5.182  -2.925  1.00  0.00     0.164 HD
BRANCH  16  19
ATOM     19  C   UNL     1      13.709  -5.080  -0.957  1.00  0.00     0.135 C 
BRANCH  19  20
ATOM     20  C   UNL     1      12.884  -5.158   0.306  1.00  0.00    -0.039 A 
ATOM     21  C   UNL     1      12.645  -6.398   0.918  1.00  0.00     0.004 A 
ATOM     22  C   UNL     1      12.357  -3.998   0.890  1.00  0.00     0.004 A 
ATOM     23  C   UNL     1      11.898  -6.474   2.093  1.00  0.00     0.000 A 
ATOM     24  C   UNL     1      11.609  -4.079   2.065  1.00  0.00     0.000 A 
ATOM     25  C   UNL     1      11.380  -5.315   2.667  1.00  0.00     0.000 A 
ENDBRANCH  19  20
ENDBRANCH  16  19
ENDBRANCH   7  15
TORSDOF 5
ENDMDL
