REMARK SMILES CC1(C)SC2C(NC(=O)Cc3ccccc3)C(=O)N2C1C(=O)O
REMARK SMILES IDX 1 1 2 2 20 3 19 4 5 5 4 6 6 7 17 8 18 9 3 10 21 11 22 12
REMARK SMILES IDX 23 13 7 15 8 16 9 17 10 19 11 20 12 21 16 22 13 23 15 24
REMARK SMILES IDX 14 25
REMARK H PARENT 23 14 7 18
ROOT
ATOM      1  C   UNL     1      -5.128  -1.200  -0.527  1.00  0.00     0.026 C 
ATOM      2  C   UNL     1      -3.707  -0.650  -0.716  1.00  0.00     0.044 C 
ATOM      3  C   UNL     1      -3.326   0.336   0.406  1.00  0.00     0.211 C 
ATOM      4  N   UNL     1      -1.886   0.242   0.636  1.00  0.00    -0.311 N 
ATOM      5  C   UNL     1      -1.333  -1.126   0.550  1.00  0.00     0.176 C 
ATOM      6  S   UNL     1      -2.523  -2.074  -0.501  1.00  0.00    -0.125 SA
ATOM      7  C   UNL     1      -0.123  -0.541  -0.223  1.00  0.00     0.205 C 
ATOM      8  C   UNL     1      -0.987   0.743  -0.271  1.00  0.00     0.250 C 
ATOM      9  O   UNL     1      -0.974   1.777  -0.897  1.00  0.00    -0.272 OA
ATOM     10  C   UNL     1      -3.548  -0.118  -2.146  1.00  0.00     0.026 C 
ENDROOT
BRANCH   3  11
ATOM     11  C   UNL     1      -3.896   1.750   0.281  1.00  0.00     0.327 C 
ATOM     12  O   UNL     1      -4.972   2.049  -0.214  1.00  0.00    -0.250 OA
BRANCH  11  13
ATOM     13  O   UNL     1      -3.159   2.695   0.901  1.00  0.00    -0.480 OA
ATOM     14  H   UNL     1      -3.616   3.539   0.710  1.00  0.00     0.296 HD
ENDBRANCH  11  13
ENDBRANCH   3  11
BRANCH   7  15
ATOM     15  N   UNL     1       1.158  -0.393   0.526  1.00  0.00    -0.341 N 
ATOM     16  C   UNL     1       1.802  -1.479   1.075  1.00  0.00     0.225 C 
ATOM     17  O   UNL     1       1.296  -2.599   1.084  1.00  0.00    -0.275 OA
ATOM     18  H   UNL     1       1.677   0.476   0.439  1.00  0.00     0.164 HD
BRANCH  16  19
ATOM     19  C   UNL     1       3.136  -1.190   1.740  1.00  0.00     0.135 C 
BRANCH  19  20
ATOM     20  C   UNL     1       4.055  -0.305   0.931  1.00  0.00    -0.039 A 
ATOM     21  C   UNL     1       4.577  -0.758  -0.290  1.00  0.00     0.004 A 
ATOM     22  C   UNL     1       4.390   0.980   1.379  1.00  0.00     0.004 A 
ATOM     23  C   UNL     1       5.413   0.061  -1.049  1.00  0.00     0.000 A 
ATOM     24  C   UNL     1       5.227   1.796   0.617  1.00  0.00     0.000 A 
ATOM     25  C   UNL     1       5.738   1.337  -0.596  1.00  0.00     0.000 A 
ENDBRANCH  19  20
ENDBRANCH  16  19
ENDBRANCH   7  15
TORSDOF 5
