MODEL 1
REMARK VINA RESULT:    -3.263      0.000      0.000
REMARK INTER + INTRA:          -4.826
REMARK INTER:                  -4.122
REMARK INTRA:                  -0.704
REMARK UNBOUND:                -0.704
REMARK SMILES CN(C)C1C(=O)C(C(N)=O)=C(O)C2(O)C(=O)C3=C(O)c4c(O)cccc4C(C)(O)C3CC12
REMARK SMILES IDX 28 1 27 2 30 3 31 4 32 5 4 6 5 7 6 8 7 9 11 10 13 11 15 12
REMARK SMILES IDX 16 13 17 14 18 15 20 16 26 17 25 18 24 19 23 20 21 21 29 22
REMARK SMILES IDX 19 24 22 26 2 28 1 29 3 30 14 31 12 33 8 35 10 36 9 37
REMARK H PARENT 29 23 19 25 22 27 14 32 12 34 9 38 9 39
ROOT
ATOM      1  C   UNL     1      13.905  -5.764  -3.940  1.00  0.00     0.048 C 
ATOM      2  C   UNL     1      12.785  -4.741  -3.693  1.00  0.00     0.095 C 
ATOM      3  C   UNL     1      12.691  -4.374  -2.175  1.00  0.00     0.063 C 
ATOM      4  C   UNL     1      14.026  -4.169  -1.430  1.00  0.00     0.021 C 
ATOM      5  C   UNL     1      13.866  -3.819   0.081  1.00  0.00     0.063 C 
ATOM      6  C   UNL     1      13.595  -5.056   0.972  1.00  0.00     0.136 C 
ATOM      7  C   UNL     1      13.527  -4.662   2.446  1.00  0.00     0.189 C 
ATOM      8  O   UNL     1      14.014  -5.398   3.304  1.00  0.00    -0.292 OA
ATOM      9  C   UNL     1      12.864  -3.368   2.805  1.00  0.00     0.125 C 
ATOM     10  C   UNL     1      12.577  -2.482   1.826  1.00  0.00     0.149 C 
ATOM     11  C   UNL     1      12.875  -2.680   0.349  1.00  0.00     0.190 C 
ATOM     12  C   UNL     1      11.593  -2.802  -0.522  1.00  0.00     0.202 C 
ATOM     13  O   UNL     1      10.469  -2.437  -0.182  1.00  0.00    -0.291 OA
ATOM     14  C   UNL     1      11.847  -3.158  -1.943  1.00  0.00     0.048 C 
ATOM     15  C   UNL     1      11.505  -2.263  -2.883  1.00  0.00     0.134 C 
ATOM     16  C   UNL     1      12.116  -2.344  -4.230  1.00  0.00     0.065 A 
ATOM     17  C   UNL     1      12.817  -3.518  -4.608  1.00  0.00    -0.001 A 
ATOM     18  C   UNL     1      13.437  -3.567  -5.875  1.00  0.00     0.008 A 
ATOM     19  C   UNL     1      13.388  -2.479  -6.746  1.00  0.00     0.004 A 
ATOM     20  C   UNL     1      12.706  -1.329  -6.377  1.00  0.00     0.047 A 
ATOM     21  C   UNL     1      12.077  -1.265  -5.136  1.00  0.00     0.126 A 
ENDROOT
BRANCH   2  22
ATOM     22  O   UNL     1      11.566  -5.450  -4.012  1.00  0.00    -0.385 OA
ATOM     23  H   UNL     1      11.727  -6.013  -4.790  1.00  0.00     0.211 HD
ENDBRANCH   2  22
BRANCH  15  24
ATOM     24  O   UNL     1      10.717  -1.158  -2.623  1.00  0.00    -0.507 OA
ATOM     25  H   UNL     1       9.872  -1.271  -3.119  1.00  0.00     0.293 HD
ENDBRANCH  15  24
BRANCH  21  26
ATOM     26  O   UNL     1      11.436  -0.086  -4.863  1.00  0.00    -0.507 OA
ATOM     27  H   UNL     1      11.556   0.085  -3.906  1.00  0.00     0.293 HD
ENDBRANCH  21  26
BRANCH   6  28
ATOM     28  N   UNL     1      12.472  -5.925   0.544  1.00  0.00    -0.299 NA
ATOM     29  C   UNL     1      11.227  -5.817   1.315  1.00  0.00     0.105 C 
ATOM     30  C   UNL     1      12.888  -7.337   0.544  1.00  0.00     0.105 C 
ENDBRANCH   6  28
BRANCH  11  31
ATOM     31  O   UNL     1      13.477  -1.424  -0.046  1.00  0.00    -0.374 OA
ATOM     32  H   UNL     1      14.439  -1.545  -0.150  1.00  0.00     0.212 HD
ENDBRANCH  11  31
BRANCH  10  33
ATOM     33  O   UNL     1      12.065  -1.219   2.138  1.00  0.00    -0.508 OA
ATOM     34  H   UNL     1      12.773  -0.574   1.915  1.00  0.00     0.293 HD
ENDBRANCH  10  33
BRANCH   9  35
ATOM     35  C   UNL     1      12.499  -3.125   4.232  1.00  0.00     0.255 C 
ATOM     36  O   UNL     1      11.367  -2.811   4.581  1.00  0.00    -0.269 OA
ATOM     37  N   UNL     1      13.496  -3.250   5.152  1.00  0.00    -0.365 N 
ATOM     38  H   UNL     1      14.456  -3.169   4.834  1.00  0.00     0.159 HD
ATOM     39  H   UNL     1      13.280  -2.926   6.085  1.00  0.00     0.159 HD
ENDBRANCH   9  35
TORSDOF 7
ENDMDL
MODEL 2
REMARK VINA RESULT:    -1.847     20.697     22.469
REMARK INTER + INTRA:          -3.037
REMARK INTER:                  -2.536
REMARK INTRA:                  -0.501
REMARK UNBOUND:                -0.704
REMARK SMILES CN(C)C1C(=O)C(C(N)=O)=C(O)C2(O)C(=O)C3=C(O)c4c(O)cccc4C(C)(O)C3CC12
REMARK SMILES IDX 28 1 27 2 30 3 31 4 32 5 4 6 5 7 6 8 7 9 11 10 13 11 15 12
REMARK SMILES IDX 16 13 17 14 18 15 20 16 26 17 25 18 24 19 23 20 21 21 29 22
REMARK SMILES IDX 19 24 22 26 2 28 1 29 3 30 14 31 12 33 8 35 10 36 9 37
REMARK H PARENT 29 23 19 25 22 27 14 32 12 34 9 38 9 39
ROOT
ATOM      1  C   UNL     1      -6.224   9.003  -1.453  1.00  0.00     0.048 C 
ATOM      2  C   UNL     1      -6.330   9.498  -2.904  1.00  0.00     0.095 C 
ATOM      3  C   UNL     1      -5.012  10.219  -3.344  1.00  0.00     0.063 C 
ATOM      4  C   UNL     1      -3.687   9.564  -2.904  1.00  0.00     0.021 C 
ATOM      5  C   UNL     1      -2.412  10.336  -3.362  1.00  0.00     0.063 C 
ATOM      6  C   UNL     1      -2.074  11.550  -2.462  1.00  0.00     0.136 C 
ATOM      7  C   UNL     1      -0.775  12.217  -2.911  1.00  0.00     0.189 C 
ATOM      8  O   UNL     1       0.018  12.646  -2.073  1.00  0.00    -0.292 OA
ATOM      9  C   UNL     1      -0.502  12.323  -4.380  1.00  0.00     0.125 C 
ATOM     10  C   UNL     1      -1.266  11.618  -5.243  1.00  0.00     0.149 C 
ATOM     11  C   UNL     1      -2.411  10.698  -4.852  1.00  0.00     0.190 C 
ATOM     12  C   UNL     1      -3.798  11.211  -5.331  1.00  0.00     0.202 C 
ATOM     13  O   UNL     1      -3.977  12.046  -6.217  1.00  0.00    -0.291 OA
ATOM     14  C   UNL     1      -4.953  10.421  -4.828  1.00  0.00     0.048 C 
ATOM     15  C   UNL     1      -5.708   9.774  -5.727  1.00  0.00     0.134 C 
ATOM     16  C   UNL     1      -6.564   8.646  -5.292  1.00  0.00     0.065 A 
ATOM     17  C   UNL     1      -6.808   8.450  -3.908  1.00  0.00    -0.001 A 
ATOM     18  C   UNL     1      -7.584   7.345  -3.499  1.00  0.00     0.008 A 
ATOM     19  C   UNL     1      -8.096   6.439  -4.427  1.00  0.00     0.004 A 
ATOM     20  C   UNL     1      -7.856   6.626  -5.781  1.00  0.00     0.047 A 
ATOM     21  C   UNL     1      -7.103   7.717  -6.205  1.00  0.00     0.126 A 
ENDROOT
BRANCH   2  22
ATOM     22  O   UNL     1      -7.355  10.518  -2.868  1.00  0.00    -0.385 OA
ATOM     23  H   UNL     1      -8.029  10.259  -2.217  1.00  0.00     0.211 HD
ENDBRANCH   2  22
BRANCH  15  24
ATOM     24  O   UNL     1      -5.624  10.000  -7.088  1.00  0.00    -0.507 OA
ATOM     25  H   UNL     1      -6.454  10.449  -7.369  1.00  0.00     0.293 HD
ENDBRANCH  15  24
BRANCH  21  26
ATOM     26  O   UNL     1      -6.917   7.812  -7.559  1.00  0.00    -0.507 OA
ATOM     27  H   UNL     1      -7.789   7.650  -7.976  1.00  0.00     0.293 HD
ENDBRANCH  21  26
BRANCH   6  28
ATOM     28  N   UNL     1      -3.180  12.512  -2.236  1.00  0.00    -0.299 NA
ATOM     29  C   UNL     1      -3.043  13.831  -2.865  1.00  0.00     0.105 C 
ATOM     30  C   UNL     1      -3.394  12.715  -0.793  1.00  0.00     0.105 C 
ENDBRANCH   6  28
BRANCH  11  31
ATOM     31  O   UNL     1      -2.165   9.502  -5.631  1.00  0.00    -0.374 OA
ATOM     32  H   UNL     1      -1.347   9.075  -5.316  1.00  0.00     0.212 HD
ENDBRANCH  11  31
BRANCH  10  33
ATOM     33  O   UNL     1      -0.966  11.603  -6.609  1.00  0.00    -0.508 OA
ATOM     34  H   UNL     1      -0.337  10.859  -6.742  1.00  0.00     0.293 HD
ENDBRANCH  10  33
BRANCH   9  35
ATOM     35  C   UNL     1       0.578  13.245  -4.840  1.00  0.00     0.255 C 
ATOM     36  O   UNL     1       0.529  13.837  -5.911  1.00  0.00    -0.269 OA
ATOM     37  N   UNL     1       1.652  13.393  -4.016  1.00  0.00    -0.365 N 
ATOM     38  H   UNL     1       1.838  12.667  -3.332  1.00  0.00     0.159 HD
ATOM     39  H   UNL     1       2.445  13.885  -4.407  1.00  0.00     0.159 HD
ENDBRANCH   9  35
TORSDOF 7
ENDMDL
MODEL 3
REMARK VINA RESULT:    -1.504      2.246      6.943
REMARK INTER + INTRA:          -2.604
REMARK INTER:                  -2.237
REMARK INTRA:                  -0.367
REMARK UNBOUND:                -0.704
REMARK SMILES CN(C)C1C(=O)C(C(N)=O)=C(O)C2(O)C(=O)C3=C(O)c4c(O)cccc4C(C)(O)C3CC12
REMARK SMILES IDX 28 1 27 2 30 3 31 4 32 5 4 6 5 7 6 8 7 9 11 10 13 11 15 12
REMARK SMILES IDX 16 13 17 14 18 15 20 16 26 17 25 18 24 19 23 20 21 21 29 22
REMARK SMILES IDX 19 24 22 26 2 28 1 29 3 30 14 31 12 33 8 35 10 36 9 37
REMARK H PARENT 29 23 19 25 22 27 14 32 12 34 9 38 9 39
ROOT
ATOM      1  C   UNL     1      11.826  -6.259   0.884  1.00  0.00     0.048 C 
ATOM      2  C   UNL     1      12.641  -4.955   0.892  1.00  0.00     0.095 C 
ATOM      3  C   UNL     1      12.513  -4.210  -0.479  1.00  0.00     0.063 C 
ATOM      4  C   UNL     1      11.109  -4.176  -1.117  1.00  0.00     0.021 C 
ATOM      5  C   UNL     1      11.050  -3.432  -2.486  1.00  0.00     0.063 C 
ATOM      6  C   UNL     1      11.536  -4.296  -3.676  1.00  0.00     0.136 C 
ATOM      7  C   UNL     1      11.380  -3.543  -4.996  1.00  0.00     0.189 C 
ATOM      8  O   UNL     1      11.013  -4.143  -6.007  1.00  0.00    -0.292 OA
ATOM      9  C   UNL     1      11.678  -2.076  -5.016  1.00  0.00     0.125 C 
ATOM     10  C   UNL     1      11.824  -1.419  -3.844  1.00  0.00     0.149 C 
ATOM     11  C   UNL     1      11.711  -2.048  -2.465  1.00  0.00     0.190 C 
ATOM     12  C   UNL     1      13.054  -2.051  -1.683  1.00  0.00     0.202 C 
ATOM     13  O   UNL     1      14.023  -1.338  -1.937  1.00  0.00    -0.291 OA
ATOM     14  C   UNL     1      13.015  -2.801  -0.399  1.00  0.00     0.048 C 
ATOM     15  C   UNL     1      13.210  -2.112   0.735  1.00  0.00     0.134 C 
ATOM     16  C   UNL     1      12.754  -2.678   2.025  1.00  0.00     0.065 A 
ATOM     17  C   UNL     1      12.393  -4.048   2.097  1.00  0.00    -0.001 A 
ATOM     18  C   UNL     1      11.913  -4.568   3.318  1.00  0.00     0.008 A 
ATOM     19  C   UNL     1      11.773  -3.756   4.443  1.00  0.00     0.004 A 
ATOM     20  C   UNL     1      12.122  -2.415   4.375  1.00  0.00     0.047 A 
ATOM     21  C   UNL     1      12.608  -1.886   3.182  1.00  0.00     0.126 A 
ENDROOT
BRANCH   2  22
ATOM     22  O   UNL     1      14.017  -5.386   0.990  1.00  0.00    -0.385 OA
ATOM     23  H   UNL     1      14.419  -4.973   1.774  1.00  0.00     0.211 HD
ENDBRANCH   2  22
BRANCH  15  24
ATOM     24  O   UNL     1      13.683  -0.813   0.759  1.00  0.00    -0.507 OA
ATOM     25  H   UNL     1      12.932  -0.227   1.009  1.00  0.00     0.293 HD
ENDBRANCH  15  24
BRANCH  21  26
ATOM     26  O   UNL     1      12.920  -0.553   3.215  1.00  0.00    -0.507 OA
ATOM     27  H   UNL     1      12.786  -0.254   4.139  1.00  0.00     0.293 HD
ENDBRANCH  21  26
BRANCH   6  28
ATOM     28  N   UNL     1      12.868  -4.927  -3.512  1.00  0.00    -0.299 NA
ATOM     29  C   UNL     1      13.997  -4.260  -4.173  1.00  0.00     0.105 C 
ATOM     30  C   UNL     1      12.831  -6.325  -3.973  1.00  0.00     0.105 C 
ENDBRANCH   6  28
BRANCH  11  31
ATOM     31  O   UNL     1      10.858  -1.126  -1.743  1.00  0.00    -0.374 OA
ATOM     32  H   UNL     1      10.720  -0.325  -2.281  1.00  0.00     0.212 HD
ENDBRANCH  11  31
BRANCH  10  33
ATOM     33  O   UNL     1      11.987  -0.030  -3.824  1.00  0.00    -0.508 OA
ATOM     34  H   UNL     1      12.306   0.221  -4.720  1.00  0.00     0.293 HD
ENDBRANCH  10  33
BRANCH   9  35
ATOM     35  C   UNL     1      11.850  -1.401  -6.336  1.00  0.00     0.255 C 
ATOM     36  O   UNL     1      10.906  -0.962  -6.982  1.00  0.00    -0.269 OA
ATOM     37  N   UNL     1      13.121  -1.305  -6.816  1.00  0.00    -0.365 N 
ATOM     38  H   UNL     1      13.820  -1.949  -6.461  1.00  0.00     0.159 HD
ATOM     39  H   UNL     1      13.209  -0.998  -7.775  1.00  0.00     0.159 HD
ENDBRANCH   9  35
TORSDOF 7
ENDMDL
MODEL 4
REMARK VINA RESULT:    -0.978      2.598      7.454
REMARK INTER + INTRA:          -1.939
REMARK INTER:                  -1.139
REMARK INTRA:                  -0.800
REMARK UNBOUND:                -0.704
REMARK SMILES CN(C)C1C(=O)C(C(N)=O)=C(O)C2(O)C(=O)C3=C(O)c4c(O)cccc4C(C)(O)C3CC12
REMARK SMILES IDX 28 1 27 2 30 3 31 4 32 5 4 6 5 7 6 8 7 9 11 10 13 11 15 12
REMARK SMILES IDX 16 13 17 14 18 15 20 16 26 17 25 18 24 19 23 20 21 21 29 22
REMARK SMILES IDX 19 24 22 26 2 28 1 29 3 30 14 31 12 33 8 35 10 36 9 37
REMARK H PARENT 29 23 19 25 22 27 14 32 12 34 9 38 9 39
ROOT
ATOM      1  C   UNL     1      14.026  -0.649   1.676  1.00  0.00     0.048 C 
ATOM      2  C   UNL     1      12.847  -1.613   1.469  1.00  0.00     0.095 C 
ATOM      3  C   UNL     1      12.714  -2.014  -0.038  1.00  0.00     0.063 C 
ATOM      4  C   UNL     1      14.026  -2.314  -0.791  1.00  0.00     0.021 C 
ATOM      5  C   UNL     1      13.829  -2.695  -2.290  1.00  0.00     0.063 C 
ATOM      6  C   UNL     1      13.616  -1.468  -3.212  1.00  0.00     0.136 C 
ATOM      7  C   UNL     1      13.508  -1.897  -4.674  1.00  0.00     0.189 C 
ATOM      8  O   UNL     1      14.026  -1.213  -5.556  1.00  0.00    -0.292 OA
ATOM      9  C   UNL     1      12.769  -3.160  -4.990  1.00  0.00     0.125 C 
ATOM     10  C   UNL     1      12.445  -4.002  -3.984  1.00  0.00     0.149 C 
ATOM     11  C   UNL     1      12.771  -3.782  -2.516  1.00  0.00     0.190 C 
ATOM     12  C   UNL     1      11.509  -3.564  -1.636  1.00  0.00     0.202 C 
ATOM     13  O   UNL     1      10.361  -3.874  -1.953  1.00  0.00    -0.291 OA
ATOM     14  C   UNL     1      11.800  -3.186  -0.227  1.00  0.00     0.048 C 
ATOM     15  C   UNL     1      11.419  -4.034   0.740  1.00  0.00     0.134 C 
ATOM     16  C   UNL     1      12.050  -3.953   2.078  1.00  0.00     0.065 A 
ATOM     17  C   UNL     1      12.820  -2.811   2.417  1.00  0.00    -0.001 A 
ATOM     18  C   UNL     1      13.458  -2.764   3.674  1.00  0.00     0.008 A 
ATOM     19  C   UNL     1      13.357  -3.823   4.576  1.00  0.00     0.004 A 
ATOM     20  C   UNL     1      12.607  -4.942   4.245  1.00  0.00     0.047 A 
ATOM     21  C   UNL     1      11.961  -5.003   3.014  1.00  0.00     0.126 A 
ENDROOT
BRANCH   2  22
ATOM     22  O   UNL     1      11.674  -0.827   1.782  1.00  0.00    -0.385 OA
ATOM     23  H   UNL     1      11.495  -0.224   1.039  1.00  0.00     0.211 HD
ENDBRANCH   2  22
BRANCH  15  24
ATOM     24  O   UNL     1      10.566  -5.099   0.519  1.00  0.00    -0.507 OA
ATOM     25  H   UNL     1      10.534  -5.632   1.347  1.00  0.00     0.293 HD
ENDBRANCH  15  24
BRANCH  21  26
ATOM     26  O   UNL     1      11.251  -6.151   2.779  1.00  0.00    -0.507 OA
ATOM     27  H   UNL     1      11.462  -6.768   3.510  1.00  0.00     0.293 HD
ENDBRANCH  21  26
BRANCH   6  28
ATOM     28  N   UNL     1      12.550  -0.526  -2.795  1.00  0.00    -0.299 NA
ATOM     29  C   UNL     1      11.333  -0.506  -3.617  1.00  0.00     0.105 C 
ATOM     30  C   UNL     1      13.077   0.847  -2.728  1.00  0.00     0.105 C 
ENDBRANCH   6  28
BRANCH  11  31
ATOM     31  O   UNL     1      13.306  -5.060  -2.094  1.00  0.00    -0.374 OA
ATOM     32  H   UNL     1      14.125  -5.246  -2.588  1.00  0.00     0.212 HD
ENDBRANCH  11  31
BRANCH  10  33
ATOM     33  O   UNL     1      11.858  -5.242  -4.256  1.00  0.00    -0.508 OA
ATOM     34  H   UNL     1      12.323  -5.597  -5.047  1.00  0.00     0.293 HD
ENDBRANCH  10  33
BRANCH   9  35
ATOM     35  C   UNL     1      12.373  -3.420  -6.406  1.00  0.00     0.255 C 
ATOM     36  O   UNL     1      12.731  -4.418  -7.020  1.00  0.00    -0.269 OA
ATOM     37  N   UNL     1      11.598  -2.477  -7.010  1.00  0.00    -0.365 N 
ATOM     38  H   UNL     1      11.599  -1.536  -6.630  1.00  0.00     0.159 HD
ATOM     39  H   UNL     1      11.474  -2.580  -8.009  1.00  0.00     0.159 HD
ENDBRANCH   9  35
TORSDOF 7
ENDMDL
MODEL 5
REMARK VINA RESULT:    -0.372      2.054      3.367
REMARK INTER + INTRA:          -1.173
REMARK INTER:                  -0.900
REMARK INTRA:                  -0.273
REMARK UNBOUND:                -0.704
REMARK SMILES CN(C)C1C(=O)C(C(N)=O)=C(O)C2(O)C(=O)C3=C(O)c4c(O)cccc4C(C)(O)C3CC12
REMARK SMILES IDX 28 1 27 2 30 3 31 4 32 5 4 6 5 7 6 8 7 9 11 10 13 11 15 12
REMARK SMILES IDX 16 13 17 14 18 15 20 16 26 17 25 18 24 19 23 20 21 21 29 22
REMARK SMILES IDX 19 24 22 26 2 28 1 29 3 30 14 31 12 33 8 35 10 36 9 37
REMARK H PARENT 29 23 19 25 22 27 14 32 12 34 9 38 9 39
ROOT
ATOM      1  C   UNL     1      14.026  -6.620   0.115  1.00  0.00     0.048 C 
ATOM      2  C   UNL     1      12.853  -5.633   0.015  1.00  0.00     0.095 C 
ATOM      3  C   UNL     1      12.715  -4.797   1.331  1.00  0.00     0.063 C 
ATOM      4  C   UNL     1      14.026  -4.293   1.969  1.00  0.00     0.021 C 
ATOM      5  C   UNL     1      13.824  -3.479   3.283  1.00  0.00     0.063 C 
ATOM      6  C   UNL     1      13.598  -4.371   4.529  1.00  0.00     0.136 C 
ATOM      7  C   UNL     1      13.485  -3.523   5.794  1.00  0.00     0.189 C 
ATOM      8  O   UNL     1      13.994  -3.915   6.845  1.00  0.00    -0.292 OA
ATOM      9  C   UNL     1      12.753  -2.219   5.712  1.00  0.00     0.125 C 
ATOM     10  C   UNL     1      12.441  -1.716   4.497  1.00  0.00     0.149 C 
ATOM     11  C   UNL     1      12.773  -2.368   3.166  1.00  0.00     0.190 C 
ATOM     12  C   UNL     1      11.514  -2.833   2.382  1.00  0.00     0.202 C 
ATOM     13  O   UNL     1      10.367  -2.436   2.584  1.00  0.00    -0.291 OA
ATOM     14  C   UNL     1      11.810  -3.617   1.154  1.00  0.00     0.048 C 
ATOM     15  C   UNL     1      11.440  -3.096  -0.026  1.00  0.00     0.134 C 
ATOM     16  C   UNL     1      12.077  -3.578  -1.273  1.00  0.00     0.065 A 
ATOM     17  C   UNL     1      12.841  -4.774  -1.249  1.00  0.00    -0.001 A 
ATOM     18  C   UNL     1      13.484  -5.199  -2.430  1.00  0.00     0.008 A 
ATOM     19  C   UNL     1      13.396  -4.459  -3.608  1.00  0.00     0.004 A 
ATOM     20  C   UNL     1      12.653  -3.288  -3.634  1.00  0.00     0.047 A 
ATOM     21  C   UNL     1      12.001  -2.857  -2.481  1.00  0.00     0.126 A 
ENDROOT
BRANCH   2  22
ATOM     22  O   UNL     1      11.676  -6.470  -0.056  1.00  0.00    -0.385 OA
ATOM     23  H   UNL     1      10.905  -5.948   0.225  1.00  0.00     0.211 HD
ENDBRANCH   2  22
BRANCH  15  24
ATOM     24  O   UNL     1      10.594  -2.009  -0.141  1.00  0.00    -0.507 OA
ATOM     25  H   UNL     1      10.018  -2.161  -0.926  1.00  0.00     0.293 HD
ENDBRANCH  15  24
BRANCH  21  26
ATOM     26  O   UNL     1      11.298  -1.688  -2.607  1.00  0.00    -0.507 OA
ATOM     27  H   UNL     1      11.226  -1.303  -1.708  1.00  0.00     0.293 HD
ENDBRANCH  21  26
BRANCH   6  28
ATOM     28  N   UNL     1      12.526  -5.389   4.406  1.00  0.00    -0.299 NA
ATOM     29  C   UNL     1      11.245  -5.076   5.053  1.00  0.00     0.105 C 
ATOM     30  C   UNL     1      12.992  -6.687   4.922  1.00  0.00     0.105 C 
ENDBRANCH   6  28
BRANCH  11  31
ATOM     31  O   UNL     1      13.320  -1.279   2.383  1.00  0.00    -0.374 OA
ATOM     32  H   UNL     1      14.293  -1.303   2.432  1.00  0.00     0.212 HD
ENDBRANCH  11  31
BRANCH  10  33
ATOM     33  O   UNL     1      11.862  -0.448   4.381  1.00  0.00    -0.508 OA
ATOM     34  H   UNL     1      11.409  -0.275   5.237  1.00  0.00     0.293 HD
ENDBRANCH  10  33
BRANCH   9  35
ATOM     35  C   UNL     1      12.353  -1.545   6.982  1.00  0.00     0.255 C 
ATOM     36  O   UNL     1      11.442  -0.728   7.038  1.00  0.00    -0.269 OA
ATOM     37  N   UNL     1      13.064  -1.864   8.099  1.00  0.00    -0.365 N 
ATOM     38  H   UNL     1      13.994  -2.254   7.982  1.00  0.00     0.159 HD
ATOM     39  H   UNL     1      12.896  -1.286   8.911  1.00  0.00     0.159 HD
ENDBRANCH   9  35
TORSDOF 7
ENDMDL
