REMARK SMILES CN(C)C1C(=O)C(C(N)=O)=C(O)C2(O)C(=O)C3=C(O)c4c(O)cccc4C(C)(O)C3CC12
REMARK SMILES IDX 28 1 27 2 30 3 31 4 32 5 4 6 5 7 6 8 7 9 11 10 13 11 15 12
REMARK SMILES IDX 16 13 17 14 18 15 20 16 26 17 25 18 24 19 23 20 21 21 29 22
REMARK SMILES IDX 19 24 22 26 2 28 1 29 3 30 14 31 12 33 8 35 10 36 9 37
REMARK H PARENT 29 23 19 25 22 27 14 32 12 34 9 38 9 39
ROOT
ATOM      1  C   UNL     1       2.090  -2.919   1.039  1.00  0.00     0.048 C 
ATOM      2  C   UNL     1       2.186  -1.696   0.113  1.00  0.00     0.095 C 
ATOM      3  C   UNL     1       0.837  -0.903   0.096  1.00  0.00     0.063 C 
ATOM      4  C   UNL     1       0.126  -0.722   1.453  1.00  0.00     0.021 C 
ATOM      5  C   UNL     1      -1.218   0.064   1.368  1.00  0.00     0.063 C 
ATOM      6  C   UNL     1      -2.409  -0.806   0.895  1.00  0.00     0.136 C 
ATOM      7  C   UNL     1      -3.709  -0.004   0.908  1.00  0.00     0.189 C 
ATOM      8  O   UNL     1      -4.758  -0.538   1.269  1.00  0.00    -0.292 OA
ATOM      9  C   UNL     1      -3.663   1.430   0.480  1.00  0.00     0.125 C 
ATOM     10  C   UNL     1      -2.463   2.037   0.342  1.00  0.00     0.149 C 
ATOM     11  C   UNL     1      -1.115   1.381   0.589  1.00  0.00     0.190 C 
ATOM     12  C   UNL     1      -0.262   1.233  -0.702  1.00  0.00     0.202 C 
ATOM     13  O   UNL     1      -0.439   1.862  -1.744  1.00  0.00    -0.291 OA
ATOM     14  C   UNL     1       0.991   0.452  -0.524  1.00  0.00     0.048 C 
ATOM     15  C   UNL     1       2.157   1.087  -0.715  1.00  0.00     0.134 C 
ATOM     16  C   UNL     1       3.401   0.527  -0.138  1.00  0.00     0.065 A 
ATOM     17  C   UNL     1       3.406  -0.806   0.347  1.00  0.00    -0.001 A 
ATOM     18  C   UNL     1       4.581  -1.315   0.939  1.00  0.00     0.008 A 
ATOM     19  C   UNL     1       5.724  -0.527   1.070  1.00  0.00     0.004 A 
ATOM     20  C   UNL     1       5.721   0.778   0.599  1.00  0.00     0.047 A 
ATOM     21  C   UNL     1       4.575   1.295   0.001  1.00  0.00     0.126 A 
ENDROOT
BRANCH   2  22
ATOM     22  O   UNL     1       2.343  -2.253  -1.212  1.00  0.00    -0.385 OA
ATOM     23  H   UNL     1       3.264  -2.124  -1.498  1.00  0.00     0.211 HD
ENDBRANCH   2  22
BRANCH  15  24
ATOM     24  O   UNL     1       2.251   2.336  -1.300  1.00  0.00    -0.507 OA
ATOM     25  H   UNL     1       1.425   2.487  -1.816  1.00  0.00     0.293 HD
ENDBRANCH  15  24
BRANCH  21  26
ATOM     26  O   UNL     1       4.670   2.593  -0.426  1.00  0.00    -0.507 OA
ATOM     27  H   UNL     1       3.832   2.800  -0.890  1.00  0.00     0.293 HD
ENDBRANCH  21  26
BRANCH   6  28
ATOM     28  N   UNL     1      -2.196  -1.560  -0.364  1.00  0.00    -0.299 NA
ATOM     29  C   UNL     1      -2.800  -0.996  -1.578  1.00  0.00     0.105 C 
ATOM     30  C   UNL     1      -2.674  -2.945  -0.218  1.00  0.00     0.105 C 
ENDBRANCH   6  28
BRANCH  11  31
ATOM     31  O   UNL     1      -0.408   2.355   1.395  1.00  0.00    -0.374 OA
ATOM     32  H   UNL     1       0.459   1.992   1.653  1.00  0.00     0.212 HD
ENDBRANCH  11  31
BRANCH  10  33
ATOM     33  O   UNL     1      -2.387   3.404   0.057  1.00  0.00    -0.508 OA
ATOM     34  H   UNL     1      -1.463   3.674   0.258  1.00  0.00     0.293 HD
ENDBRANCH  10  33
BRANCH   9  35
ATOM     35  C   UNL     1      -4.948   2.125   0.174  1.00  0.00     0.255 C 
ATOM     36  O   UNL     1      -5.898   1.557  -0.351  1.00  0.00    -0.269 OA
ATOM     37  N   UNL     1      -5.022   3.448   0.490  1.00  0.00    -0.365 N 
ATOM     38  H   UNL     1      -4.156   3.967   0.594  1.00  0.00     0.159 HD
ATOM     39  H   UNL     1      -5.827   3.944   0.132  1.00  0.00     0.159 HD
ENDBRANCH   9  35
TORSDOF 7
